<?xml version="1.0" encoding="UTF-8"?>

<!-- generated on 2023-05-06 22:19:19 by Eclipse SUMO sumo Version 1.16.0
<configuration xmlns:xsi="http://www.w3.org/2001/XMLSchema-instance" xsi:noNamespaceSchemaLocation="http://sumo.dlr.de/xsd/sumoConfiguration.xsd">

    <input>
        <net-file value="data/01/Tainan.net.xml"/>
        <route-files value="data/01/od_route_file.odtrips32.rou.xml"/>
        <additional-files value="data/01/Tainan.det.xml"/>
    </input>

    <output>
        <tripinfo-output value="Experiment_result/tripinfo32.xml"/>
    </output>

    <time>
        <begin value="0"/>
    </time>

    <traci_server>
        <remote-port value="52789"/>
    </traci_server>

</configuration>
-->

<tripinfos xmlns:xsi="http://www.w3.org/2001/XMLSchema-instance" xsi:noNamespaceSchemaLocation="http://sumo.dlr.de/xsd/tripinfo_file.xsd">
    <tripinfo id="1873" depart="25.00" departLane="496253674#0_0" departPos="5.10" departSpeed="13.47" departDelay="0.58" arrival="124.00" arrivalLane="160913587_0" arrivalPos="125.75" arrivalSpeed="12.38" duration="99.00" routeLength="887.02" waitingTime="15.00" waitingCount="1" stopTime="0.00" timeLoss="32.43" rerouteNo="0" devices="tripinfo_1873" vType="0" speedFactor="0.97" vaporized=""/>
    <tripinfo id="951" depart="11.00" departLane="-160913587_0" departPos="5.10" departSpeed="12.38" departDelay="0.48" arrival="126.00" arrivalLane="-499302825#3_0" arrivalPos="134.22" arrivalSpeed="11.48" duration="115.00" routeLength="992.61" waitingTime="25.00" waitingCount="1" stopTime="0.00" timeLoss="34.76" rerouteNo="0" devices="tripinfo_951" vType="0" speedFactor="0.89" vaporized=""/>
    <tripinfo id="767" depart="94.00" departLane="41389169#12_0" departPos="5.10" departSpeed="14.21" departDelay="0.08" arrival="144.00" arrivalLane="71285598#7_0" arrivalPos="83.53" arrivalSpeed="13.08" duration="50.00" routeLength="311.56" waitingTime="19.00" waitingCount="1" stopTime="0.00" timeLoss="27.92" rerouteNo="0" devices="tripinfo_767" vType="0" speedFactor="1.02" vaporized=""/>
    <tripinfo id="1464" depart="55.00" departLane="-496339476#3_0" departPos="5.10" departSpeed="13.75" departDelay="0.05" arrival="149.00" arrivalLane="161010072#3_0" arrivalPos="141.87" arrivalSpeed="13.39" duration="94.00" routeLength="542.78" waitingTime="47.00" waitingCount="1" stopTime="0.00" timeLoss="54.14" rerouteNo="0" devices="tripinfo_1464" vType="0" speedFactor="0.99" vaporized=""/>
    <tripinfo id="1879" depart="61.00" departLane="-24452786#9_0" departPos="5.10" departSpeed="13.97" departDelay="0.45" arrival="149.00" arrivalLane="160913587_0" arrivalPos="125.75" arrivalSpeed="13.55" duration="88.00" routeLength="1027.08" waitingTime="5.00" waitingCount="1" stopTime="0.00" timeLoss="13.68" rerouteNo="0" devices="tripinfo_1879" vType="0" speedFactor="1.01" vaporized=""/>
    <tripinfo id="115" depart="67.00" departLane="-306997496#1_0" departPos="5.10" departSpeed="12.94" departDelay="0.59" arrival="151.00" arrivalLane="-158782352#5_0" arrivalPos="65.18" arrivalSpeed="12.32" duration="84.00" routeLength="620.01" waitingTime="23.00" waitingCount="2" stopTime="0.00" timeLoss="35.79" rerouteNo="0" devices="tripinfo_115" vType="0" speedFactor="0.93" vaporized=""/>
    <tripinfo id="940" depart="35.00" departLane="160253722#1_0" departPos="5.10" departSpeed="13.16" departDelay="0.34" arrival="157.00" arrivalLane="-227913938#6_0" arrivalPos="166.49" arrivalSpeed="13.11" duration="122.00" routeLength="1260.11" waitingTime="10.00" waitingCount="2" stopTime="0.00" timeLoss="25.94" rerouteNo="0" devices="tripinfo_940" vType="0" speedFactor="0.95" vaporized=""/>
    <tripinfo id="1749" depart="46.00" departLane="-521131212#2_0" departPos="5.10" departSpeed="12.77" departDelay="0.26" arrival="160.00" arrivalLane="521131212#2_0" arrivalPos="129.66" arrivalSpeed="12.62" duration="114.00" routeLength="1036.86" waitingTime="18.00" waitingCount="2" stopTime="0.00" timeLoss="32.39" rerouteNo="0" devices="tripinfo_1749" vType="0" speedFactor="0.92" vaporized=""/>
    <tripinfo id="1174" depart="3.00" departLane="-160913587_0" departPos="5.10" departSpeed="12.34" departDelay="0.53" arrival="165.00" arrivalLane="286094870#15_0" arrivalPos="132.77" arrivalSpeed="12.28" duration="162.00" routeLength="1198.60" waitingTime="47.00" waitingCount="2" stopTime="0.00" timeLoss="63.91" rerouteNo="0" devices="tripinfo_1174" vType="0" speedFactor="0.89" vaporized=""/>
    <tripinfo id="744" depart="37.00" departLane="152086640#0_0" departPos="5.10" departSpeed="7.78" departDelay="0.99" arrival="191.00" arrivalLane="228022792#0_0" arrivalPos="94.26" arrivalSpeed="10.19" duration="154.00" routeLength="794.21" waitingTime="62.00" waitingCount="3" stopTime="0.00" timeLoss="84.71" rerouteNo="0" devices="tripinfo_744" vType="0" speedFactor="0.83" vaporized=""/>
    <tripinfo id="782" depart="8.00" departLane="41389169#12_0" departPos="5.10" departSpeed="11.86" departDelay="0.14" arrival="193.00" arrivalLane="160913587_0" arrivalPos="125.75" arrivalSpeed="12.83" duration="185.00" routeLength="1136.79" waitingTime="78.00" waitingCount="3" stopTime="0.00" timeLoss="102.63" rerouteNo="0" devices="tripinfo_782" vType="0" speedFactor="1.00" vaporized=""/>
    <tripinfo id="1710" depart="10.00" departLane="-521131212#2_0" departPos="5.10" departSpeed="13.07" departDelay="0.12" arrival="196.00" arrivalLane="496339476#0_0" arrivalPos="147.92" arrivalSpeed="12.80" duration="186.00" routeLength="1062.30" waitingTime="79.00" waitingCount="4" stopTime="0.00" timeLoss="103.97" rerouteNo="0" devices="tripinfo_1710" vType="0" speedFactor="0.94" vaporized=""/>
    <tripinfo id="120" depart="101.00" departLane="158895309#2_0" departPos="5.10" departSpeed="13.32" departDelay="0.66" arrival="198.00" arrivalLane="-302240826#6_0" arrivalPos="134.74" arrivalSpeed="12.17" duration="97.00" routeLength="874.50" waitingTime="20.00" waitingCount="1" stopTime="0.00" timeLoss="30.69" rerouteNo="0" devices="tripinfo_120" vType="0" speedFactor="0.96" vaporized=""/>
    <tripinfo id="223" depart="113.00" departLane="158783758#2_0" departPos="5.10" departSpeed="16.33" departDelay="0.00" arrival="199.00" arrivalLane="297757244#1_0" arrivalPos="216.85" arrivalSpeed="15.86" duration="86.00" routeLength="1035.48" waitingTime="8.00" waitingCount="2" stopTime="0.00" timeLoss="22.46" rerouteNo="0" devices="tripinfo_223" vType="0" speedFactor="1.18" vaporized=""/>
    <tripinfo id="456" depart="143.00" departLane="-556031052#2_0" departPos="5.10" departSpeed="14.27" departDelay="0.22" arrival="201.00" arrivalLane="556031052#1_0" arrivalPos="158.06" arrivalSpeed="13.82" duration="58.00" routeLength="637.68" waitingTime="5.00" waitingCount="1" stopTime="0.00" timeLoss="12.48" rerouteNo="0" devices="tripinfo_456" vType="0" speedFactor="1.03" vaporized=""/>
    <tripinfo id="707" depart="6.00" departLane="152086640#0_0" departPos="5.10" departSpeed="12.33" departDelay="0.52" arrival="203.00" arrivalLane="gneE5_0" arrivalPos="123.08" arrivalSpeed="12.11" duration="197.00" routeLength="1597.87" waitingTime="46.00" waitingCount="3" stopTime="0.00" timeLoss="67.34" rerouteNo="0" devices="tripinfo_707" vType="0" speedFactor="0.89" vaporized=""/>
    <tripinfo id="485" depart="26.00" departLane="279365144#1_0" departPos="5.10" departSpeed="15.69" departDelay="0.17" arrival="203.00" arrivalLane="-31794904#2_0" arrivalPos="104.17" arrivalSpeed="15.69" duration="177.00" routeLength="1489.66" waitingTime="50.00" waitingCount="4" stopTime="0.00" timeLoss="81.44" rerouteNo="0" devices="tripinfo_485" vType="0" speedFactor="1.13" vaporized=""/>
    <tripinfo id="732" depart="47.00" departLane="-71285598#7_0" departPos="5.10" departSpeed="14.34" departDelay="0.27" arrival="203.00" arrivalLane="-279365144#3_0" arrivalPos="211.15" arrivalSpeed="13.41" duration="156.00" routeLength="1278.48" waitingTime="50.00" waitingCount="2" stopTime="0.00" timeLoss="66.60" rerouteNo="0" devices="tripinfo_732" vType="0" speedFactor="1.03" vaporized=""/>
    <tripinfo id="1478" depart="10.00" departLane="-496339476#3_0" departPos="5.10" departSpeed="12.18" departDelay="0.12" arrival="206.00" arrivalLane="286847309#10_0" arrivalPos="128.08" arrivalSpeed="11.73" duration="196.00" routeLength="803.80" waitingTime="104.00" waitingCount="4" stopTime="0.00" timeLoss="129.90" rerouteNo="0" devices="tripinfo_1478" vType="0" speedFactor="0.88" vaporized=""/>
    <tripinfo id="919" depart="6.00" departLane="41389169#12_0" departPos="5.10" departSpeed="11.61" departDelay="0.68" arrival="214.00" arrivalLane="24452782#7_0" arrivalPos="130.73" arrivalSpeed="10.96" duration="208.00" routeLength="1997.91" waitingTime="17.00" waitingCount="2" stopTime="0.00" timeLoss="35.94" rerouteNo="0" devices="tripinfo_919" vType="0" speedFactor="0.84" vaporized=""/>
    <tripinfo id="450" depart="105.00" departLane="-556031052#2_0" departPos="5.10" departSpeed="12.38" departDelay="0.32" arrival="222.00" arrivalLane="-158783758#6_0" arrivalPos="130.70" arrivalSpeed="11.45" duration="117.00" routeLength="920.60" waitingTime="26.00" waitingCount="2" stopTime="0.00" timeLoss="42.21" rerouteNo="0" devices="tripinfo_450" vType="0" speedFactor="0.89" vaporized=""/>
    <tripinfo id="942" depart="159.00" departLane="-160913587_0" departPos="5.10" departSpeed="12.80" departDelay="0.57" arrival="222.00" arrivalLane="-227913938#6_0" arrivalPos="166.49" arrivalSpeed="11.92" duration="63.00" routeLength="758.66" waitingTime="0.00" waitingCount="0" stopTime="0.00" timeLoss="3.08" rerouteNo="0" devices="tripinfo_942" vType="0" speedFactor="0.92" vaporized=""/>
    <tripinfo id="291" depart="145.00" departLane="297757252#0_0" departPos="5.10" departSpeed="14.96" departDelay="0.70" arrival="223.00" arrivalLane="306997496#0_0" arrivalPos="124.14" arrivalSpeed="14.16" duration="78.00" routeLength="631.47" waitingTime="25.00" waitingCount="2" stopTime="0.00" timeLoss="35.68" rerouteNo="0" devices="tripinfo_291" vType="0" speedFactor="1.08" vaporized=""/>
    <tripinfo id="1083" depart="7.00" departLane="-160913587_0" departPos="5.10" departSpeed="14.46" departDelay="0.63" arrival="228.00" arrivalLane="-302240826#6_0" arrivalPos="134.74" arrivalSpeed="13.93" duration="221.00" routeLength="1782.37" waitingTime="61.00" waitingCount="4" stopTime="0.00" timeLoss="96.86" rerouteNo="0" devices="tripinfo_1083" vType="0" speedFactor="1.04" vaporized=""/>
    <tripinfo id="1888" depart="112.00" departLane="496253674#0_0" departPos="5.10" departSpeed="7.20" departDelay="0.43" arrival="228.00" arrivalLane="160913587_0" arrivalPos="125.75" arrivalSpeed="12.78" duration="116.00" routeLength="887.02" waitingTime="14.00" waitingCount="1" stopTime="0.00" timeLoss="51.07" rerouteNo="0" devices="tripinfo_1888" vType="0" speedFactor="0.99" vaporized=""/>
    <tripinfo id="1284" depart="18.00" departLane="-496332203#2_0" departPos="5.10" departSpeed="12.24" departDelay="0.32" arrival="232.00" arrivalLane="-160253722#3_0" arrivalPos="117.49" arrivalSpeed="11.32" duration="214.00" routeLength="1646.41" waitingTime="51.00" waitingCount="4" stopTime="0.00" timeLoss="79.03" rerouteNo="0" devices="tripinfo_1284" vType="0" speedFactor="0.88" vaporized=""/>
    <tripinfo id="492" depart="50.00" departLane="81509011#0_0" departPos="5.10" departSpeed="13.01" departDelay="0.12" arrival="237.00" arrivalLane="-41389169#13_0" arrivalPos="100.84" arrivalSpeed="12.60" duration="187.00" routeLength="1221.59" waitingTime="65.00" waitingCount="4" stopTime="0.00" timeLoss="92.41" rerouteNo="0" devices="tripinfo_492" vType="0" speedFactor="0.94" vaporized=""/>
    <tripinfo id="937" depart="118.00" departLane="-160913587_0" departPos="5.10" departSpeed="14.78" departDelay="0.64" arrival="238.00" arrivalLane="24452786#7_0" arrivalPos="134.15" arrivalSpeed="13.52" duration="120.00" routeLength="1031.50" waitingTime="33.00" waitingCount="2" stopTime="0.00" timeLoss="49.88" rerouteNo="0" devices="tripinfo_937" vType="0" speedFactor="1.06" vaporized=""/>
    <tripinfo id="1843" depart="11.00" departLane="159307912_0" departPos="5.10" departSpeed="11.51" departDelay="0.96" arrival="239.00" arrivalLane="-31794904#2_0" arrivalPos="104.17" arrivalSpeed="10.87" duration="228.00" routeLength="1771.64" waitingTime="50.00" waitingCount="3" stopTime="0.00" timeLoss="73.87" rerouteNo="0" devices="tripinfo_1843" vType="0" speedFactor="0.83" vaporized=""/>
    <tripinfo id="1997" depart="149.00" departLane="159307912_0" departPos="5.10" departSpeed="14.35" departDelay="0.36" arrival="239.00" arrivalLane="286094870#15_0" arrivalPos="132.77" arrivalSpeed="13.37" duration="90.00" routeLength="618.03" waitingTime="30.00" waitingCount="2" stopTime="0.00" timeLoss="46.05" rerouteNo="0" devices="tripinfo_1997" vType="0" speedFactor="1.03" vaporized=""/>
    <tripinfo id="1892" depart="146.00" departLane="-24452786#9_0" departPos="5.10" departSpeed="13.61" departDelay="0.40" arrival="241.00" arrivalLane="160913587_0" arrivalPos="125.75" arrivalSpeed="13.04" duration="95.00" routeLength="1027.08" waitingTime="8.00" waitingCount="1" stopTime="0.00" timeLoss="18.66" rerouteNo="0" devices="tripinfo_1892" vType="0" speedFactor="0.98" vaporized=""/>
    <tripinfo id="197" depart="190.00" departLane="162442431#0_0" departPos="5.10" departSpeed="15.16" departDelay="0.61" arrival="241.00" arrivalLane="315886539#2_0" arrivalPos="124.84" arrivalSpeed="15.01" duration="51.00" routeLength="519.57" waitingTime="7.00" waitingCount="1" stopTime="0.00" timeLoss="16.35" rerouteNo="0" devices="tripinfo_197" vType="0" speedFactor="1.09" vaporized=""/>
    <tripinfo id="1472" depart="115.00" departLane="-41963902#10_0" departPos="5.10" departSpeed="13.41" departDelay="0.42" arrival="242.00" arrivalLane="496339475#0_0" arrivalPos="152.58" arrivalSpeed="12.93" duration="127.00" routeLength="696.07" waitingTime="55.00" waitingCount="2" stopTime="0.00" timeLoss="74.63" rerouteNo="0" devices="tripinfo_1472" vType="0" speedFactor="0.97" vaporized=""/>
    <tripinfo id="1729" depart="168.00" departLane="228022815#0_0" departPos="5.10" departSpeed="6.73" departDelay="0.16" arrival="242.00" arrivalLane="41963902#7_0" arrivalPos="139.77" arrivalSpeed="11.68" duration="74.00" routeLength="527.68" waitingTime="21.00" waitingCount="1" stopTime="0.00" timeLoss="31.27" rerouteNo="0" devices="tripinfo_1729" vType="0" speedFactor="0.90" vaporized=""/>
    <tripinfo id="1634" depart="25.00" departLane="-24452782#8_0" departPos="5.10" departSpeed="12.82" departDelay="0.35" arrival="243.00" arrivalLane="-160253722#3_0" arrivalPos="117.49" arrivalSpeed="12.22" duration="218.00" routeLength="1701.86" waitingTime="61.00" waitingCount="3" stopTime="0.00" timeLoss="84.66" rerouteNo="0" devices="tripinfo_1634" vType="0" speedFactor="0.92" vaporized=""/>
    <tripinfo id="1313" depart="115.00" departLane="-41389166#7_0" departPos="5.10" departSpeed="13.36" departDelay="0.85" arrival="249.00" arrivalLane="496253677#22_0" arrivalPos="135.88" arrivalSpeed="12.57" duration="134.00" routeLength="1244.73" waitingTime="18.00" waitingCount="3" stopTime="0.00" timeLoss="40.76" rerouteNo="0" devices="tripinfo_1313" vType="0" speedFactor="0.96" vaporized=""/>
    <tripinfo id="1141" depart="44.00" departLane="-160913587_0" departPos="5.10" departSpeed="15.17" departDelay="0.17" arrival="250.00" arrivalLane="496339476#0_0" arrivalPos="147.92" arrivalSpeed="15.00" duration="206.00" routeLength="1682.23" waitingTime="50.00" waitingCount="2" stopTime="0.00" timeLoss="94.37" rerouteNo="0" devices="tripinfo_1141" vType="0" speedFactor="1.09" vaporized=""/>
    <tripinfo id="1692" depart="81.00" departLane="228022815#0_0" departPos="5.10" departSpeed="10.88" departDelay="0.98" arrival="250.00" arrivalLane="496332203#0_0" arrivalPos="136.26" arrivalSpeed="10.71" duration="169.00" routeLength="1226.86" waitingTime="39.00" waitingCount="1" stopTime="0.00" timeLoss="56.06" rerouteNo="0" devices="tripinfo_1692" vType="0" speedFactor="0.78" vaporized=""/>
    <tripinfo id="1992" depart="129.00" departLane="227913938#0_0" departPos="5.10" departSpeed="13.26" departDelay="0.65" arrival="250.00" arrivalLane="286094870#15_0" arrivalPos="132.77" arrivalSpeed="12.39" duration="121.00" routeLength="1082.43" waitingTime="13.00" waitingCount="2" stopTime="0.00" timeLoss="38.53" rerouteNo="0" devices="tripinfo_1992" vType="0" speedFactor="0.95" vaporized=""/>
    <tripinfo id="1262" depart="16.00" departLane="302240826#4_0" departPos="5.10" departSpeed="11.43" departDelay="0.87" arrival="252.00" arrivalLane="-31794904#2_0" arrivalPos="104.17" arrivalSpeed="10.70" duration="236.00" routeLength="1689.48" waitingTime="59.00" waitingCount="4" stopTime="0.00" timeLoss="87.71" rerouteNo="0" devices="tripinfo_1262" vType="0" speedFactor="0.82" vaporized=""/>
    <tripinfo id="517" depart="88.00" departLane="81509011#0_0" departPos="5.10" departSpeed="12.75" departDelay="0.37" arrival="253.00" arrivalLane="-160253722#3_1" arrivalPos="117.49" arrivalSpeed="12.67" duration="165.00" routeLength="1559.14" waitingTime="19.00" waitingCount="3" stopTime="0.00" timeLoss="42.50" rerouteNo="0" devices="tripinfo_517" vType="0" speedFactor="0.92" vaporized=""/>
    <tripinfo id="1420" depart="6.00" departLane="-496339476#3_0" departPos="5.10" departSpeed="13.83" departDelay="0.76" arrival="254.00" arrivalLane="-31794904#2_0" arrivalPos="104.17" arrivalSpeed="13.22" duration="248.00" routeLength="2035.64" waitingTime="64.00" waitingCount="4" stopTime="0.00" timeLoss="99.96" rerouteNo="0" devices="tripinfo_1420" vType="0" speedFactor="1.00" vaporized=""/>
    <tripinfo id="213" depart="28.00" departLane="-gneE5_0" departPos="5.10" departSpeed="13.62" departDelay="0.53" arrival="255.00" arrivalLane="228022792#0_0" arrivalPos="94.26" arrivalSpeed="12.92" duration="227.00" routeLength="1709.45" waitingTime="65.00" waitingCount="4" stopTime="0.00" timeLoss="101.14" rerouteNo="0" devices="tripinfo_213" vType="0" speedFactor="0.98" vaporized=""/>
    <tripinfo id="1446" depart="48.00" departLane="-41963902#10_0" departPos="5.10" departSpeed="14.85" departDelay="0.73" arrival="258.00" arrivalLane="160913587_0" arrivalPos="125.75" arrivalSpeed="13.80" duration="210.00" routeLength="1902.69" waitingTime="58.00" waitingCount="2" stopTime="0.00" timeLoss="81.39" rerouteNo="0" devices="tripinfo_1446" vType="0" speedFactor="1.07" vaporized=""/>
    <tripinfo id="934" depart="148.00" departLane="160253722#1_1" departPos="5.10" departSpeed="11.71" departDelay="0.99" arrival="266.00" arrivalLane="-227913938#6_0" arrivalPos="166.49" arrivalSpeed="11.02" duration="118.00" routeLength="1258.98" waitingTime="0.00" waitingCount="0" stopTime="0.00" timeLoss="9.76" rerouteNo="0" devices="tripinfo_934" vType="0" speedFactor="0.84" vaporized=""/>
    <tripinfo id="1700" depart="54.00" departLane="228022815#0_0" departPos="5.10" departSpeed="11.90" departDelay="0.93" arrival="269.00" arrivalLane="-302240826#6_1" arrivalPos="134.74" arrivalSpeed="11.06" duration="215.00" routeLength="1277.38" waitingTime="81.00" waitingCount="4" stopTime="0.00" timeLoss="107.33" rerouteNo="0" devices="tripinfo_1700" vType="0" speedFactor="0.86" vaporized=""/>
    <tripinfo id="193" depart="241.00" departLane="-gneE5_0" departPos="5.10" departSpeed="12.66" departDelay="0.74" arrival="273.00" arrivalLane="306997515#4_0" arrivalPos="123.08" arrivalSpeed="12.31" duration="32.00" routeLength="378.50" waitingTime="0.00" waitingCount="0" stopTime="0.00" timeLoss="1.67" rerouteNo="0" devices="tripinfo_193" vType="0" speedFactor="0.91" vaporized=""/>
    <tripinfo id="1352" depart="3.00" departLane="-496339476#3_0" departPos="5.10" departSpeed="14.03" departDelay="0.99" arrival="276.00" arrivalLane="-227913938#6_0" arrivalPos="166.49" arrivalSpeed="13.28" duration="273.00" routeLength="2175.00" waitingTime="88.00" waitingCount="4" stopTime="0.00" timeLoss="117.27" rerouteNo="0" devices="tripinfo_1352" vType="0" speedFactor="1.01" vaporized=""/>
    <tripinfo id="1191" depart="21.00" departLane="-161010072#5_0" departPos="5.10" departSpeed="15.58" departDelay="0.00" arrival="277.00" arrivalLane="-227913938#6_0" arrivalPos="166.49" arrivalSpeed="14.86" duration="256.00" routeLength="2397.17" waitingTime="72.00" waitingCount="3" stopTime="0.00" timeLoss="102.08" rerouteNo="0" devices="tripinfo_1191" vType="0" speedFactor="1.12" vaporized=""/>
    <tripinfo id="490" depart="148.00" departLane="-72871334#3_0" departPos="5.10" departSpeed="12.07" departDelay="0.33" arrival="280.00" arrivalLane="-152086640#0_0" arrivalPos="79.00" arrivalSpeed="10.82" duration="132.00" routeLength="785.18" waitingTime="49.00" waitingCount="2" stopTime="0.00" timeLoss="66.65" rerouteNo="0" devices="tripinfo_490" vType="0" speedFactor="0.87" vaporized=""/>
    <tripinfo id="761" depart="155.00" departLane="152086640#0_0" departPos="5.10" departSpeed="12.39" departDelay="0.16" arrival="283.00" arrivalLane="72871334#1_0" arrivalPos="116.44" arrivalSpeed="11.18" duration="128.00" routeLength="859.83" waitingTime="39.00" waitingCount="3" stopTime="0.00" timeLoss="57.97" rerouteNo="0" devices="tripinfo_761" vType="0" speedFactor="0.89" vaporized=""/>
    <tripinfo id="34" depart="207.00" departLane="-306997496#1_0" departPos="5.10" departSpeed="12.91" departDelay="0.43" arrival="283.00" arrivalLane="gneE5_0" arrivalPos="123.08" arrivalSpeed="11.98" duration="76.00" routeLength="529.85" waitingTime="29.00" waitingCount="1" stopTime="0.00" timeLoss="34.90" rerouteNo="0" devices="tripinfo_34" vType="0" speedFactor="0.93" vaporized=""/>
    <tripinfo id="1127" depart="30.00" departLane="-160913587_0" departPos="5.10" departSpeed="13.72" departDelay="0.34" arrival="284.00" arrivalLane="41963902#7_0" arrivalPos="139.77" arrivalSpeed="13.61" duration="254.00" routeLength="1901.95" waitingTime="77.00" waitingCount="5" stopTime="0.00" timeLoss="114.76" rerouteNo="0" devices="tripinfo_1127" vType="0" speedFactor="0.99" vaporized=""/>
    <tripinfo id="848" depart="104.00" departLane="41389169#12_0" departPos="5.10" departSpeed="14.18" departDelay="0.15" arrival="284.00" arrivalLane="161010072#3_0" arrivalPos="141.87" arrivalSpeed="14.11" duration="180.00" routeLength="2024.55" waitingTime="15.00" waitingCount="2" stopTime="0.00" timeLoss="36.62" rerouteNo="0" devices="tripinfo_848" vType="0" speedFactor="1.02" vaporized=""/>
    <tripinfo id="1881" depart="119.00" departLane="499302825#0_0" departPos="5.10" departSpeed="12.31" departDelay="0.38" arrival="284.00" arrivalLane="160913587_0" arrivalPos="125.75" arrivalSpeed="11.19" duration="165.00" routeLength="987.57" waitingTime="62.00" waitingCount="2" stopTime="0.00" timeLoss="84.18" rerouteNo="0" devices="tripinfo_1881" vType="0" speedFactor="0.89" vaporized=""/>
    <tripinfo id="740" depart="196.00" departLane="152086640#0_0" departPos="5.10" departSpeed="12.52" departDelay="0.85" arrival="285.00" arrivalLane="72871334#1_0" arrivalPos="116.44" arrivalSpeed="11.25" duration="89.00" routeLength="859.83" waitingTime="2.00" waitingCount="2" stopTime="0.00" timeLoss="19.52" rerouteNo="0" devices="tripinfo_740" vType="0" speedFactor="0.90" vaporized=""/>
    <tripinfo id="1831" depart="15.00" departLane="496253674#0_0" departPos="5.10" departSpeed="10.77" departDelay="0.00" arrival="287.00" arrivalLane="556031052#1_0" arrivalPos="158.06" arrivalSpeed="10.03" duration="272.00" routeLength="2370.55" waitingTime="20.00" waitingCount="2" stopTime="0.00" timeLoss="51.10" rerouteNo="0" devices="tripinfo_1831" vType="0" speedFactor="0.78" vaporized=""/>
    <tripinfo id="314" depart="43.00" departLane="158995079#0_0" departPos="5.10" departSpeed="11.79" departDelay="0.44" arrival="287.00" arrivalLane="41389166#5_0" arrivalPos="133.15" arrivalSpeed="11.74" duration="244.00" routeLength="1506.24" waitingTime="88.00" waitingCount="4" stopTime="0.00" timeLoss="115.72" rerouteNo="0" devices="tripinfo_314" vType="0" speedFactor="0.85" vaporized=""/>
    <tripinfo id="1742" depart="182.00" departLane="-24452782#8_0" departPos="5.10" departSpeed="14.13" departDelay="0.14" arrival="287.00" arrivalLane="521131212#2_0" arrivalPos="129.66" arrivalSpeed="13.51" duration="105.00" routeLength="435.88" waitingTime="59.00" waitingCount="3" stopTime="0.00" timeLoss="74.04" rerouteNo="0" devices="tripinfo_1742" vType="0" speedFactor="1.02" vaporized=""/>
    <tripinfo id="1444" depart="19.00" departLane="-496339475#2_0" departPos="5.10" departSpeed="15.68" departDelay="0.73" arrival="290.00" arrivalLane="-160253722#3_0" arrivalPos="117.49" arrivalSpeed="14.75" duration="271.00" routeLength="1933.17" waitingTime="106.00" waitingCount="5" stopTime="0.00" timeLoss="146.86" rerouteNo="0" devices="tripinfo_1444" vType="0" speedFactor="1.13" vaporized=""/>
    <tripinfo id="664" depart="93.00" departLane="31794904#1_0" departPos="5.10" departSpeed="11.72" departDelay="0.83" arrival="291.00" arrivalLane="27067557#0_0" arrivalPos="135.00" arrivalSpeed="11.38" duration="198.00" routeLength="1648.40" waitingTime="34.00" waitingCount="2" stopTime="0.00" timeLoss="57.38" rerouteNo="0" devices="tripinfo_664" vType="0" speedFactor="0.84" vaporized=""/>
    <tripinfo id="1212" depart="133.00" departLane="302240826#4_0" departPos="5.10" departSpeed="14.29" departDelay="0.48" arrival="291.00" arrivalLane="-158995079#1_0" arrivalPos="233.89" arrivalSpeed="13.90" duration="158.00" routeLength="1592.21" waitingTime="22.00" waitingCount="3" stopTime="0.00" timeLoss="45.74" rerouteNo="0" devices="tripinfo_1212" vType="0" speedFactor="1.03" vaporized=""/>
    <tripinfo id="242" depart="3.00" departLane="162442431#0_0" departPos="5.10" departSpeed="14.34" departDelay="0.44" arrival="292.00" arrivalLane="-41389169#13_0" arrivalPos="100.84" arrivalSpeed="13.48" duration="289.00" routeLength="2015.41" waitingTime="111.00" waitingCount="5" stopTime="0.00" timeLoss="147.76" rerouteNo="0" devices="tripinfo_242" vType="0" speedFactor="1.03" vaporized=""/>
    <tripinfo id="728" depart="72.00" departLane="152086640#0_0" departPos="5.10" departSpeed="13.22" departDelay="0.69" arrival="292.00" arrivalLane="gneE5_0" arrivalPos="123.08" arrivalSpeed="12.60" duration="220.00" routeLength="1597.87" waitingTime="66.00" waitingCount="4" stopTime="0.00" timeLoss="99.09" rerouteNo="0" devices="tripinfo_728" vType="0" speedFactor="0.95" vaporized=""/>
    <tripinfo id="766" depart="111.00" departLane="152086640#0_0" departPos="5.10" departSpeed="12.64" departDelay="0.28" arrival="292.00" arrivalLane="-279365144#3_0" arrivalPos="211.15" arrivalSpeed="12.25" duration="181.00" routeLength="1099.34" waitingTime="79.00" waitingCount="2" stopTime="0.00" timeLoss="93.44" rerouteNo="0" devices="tripinfo_766" vType="0" speedFactor="0.91" vaporized=""/>
    <tripinfo id="679" depart="41.00" departLane="159315419_1" departPos="5.10" departSpeed="14.53" departDelay="0.81" arrival="293.00" arrivalLane="27067557#0_0" arrivalPos="135.00" arrivalSpeed="14.41" duration="252.00" routeLength="2456.56" waitingTime="33.00" waitingCount="2" stopTime="0.00" timeLoss="82.46" rerouteNo="0" devices="tripinfo_679" vType="0" speedFactor="1.05" vaporized=""/>
    <tripinfo id="258" depart="35.00" departLane="158995079#0_0" departPos="5.10" departSpeed="14.42" departDelay="0.82" arrival="295.00" arrivalLane="160913587_0" arrivalPos="125.75" arrivalSpeed="13.26" duration="260.00" routeLength="1914.20" waitingTime="95.00" waitingCount="4" stopTime="0.00" timeLoss="126.90" rerouteNo="0" devices="tripinfo_258" vType="0" speedFactor="1.04" vaporized=""/>
    <tripinfo id="1052" depart="19.00" departLane="160253722#1_0" departPos="5.10" departSpeed="13.27" departDelay="0.34" arrival="297.00" arrivalLane="-158782352#5_0" arrivalPos="65.18" arrivalSpeed="11.98" duration="278.00" routeLength="1959.42" waitingTime="103.00" waitingCount="3" stopTime="0.00" timeLoss="129.44" rerouteNo="0" devices="tripinfo_1052" vType="0" speedFactor="0.96" vaporized=""/>
    <tripinfo id="84" depart="39.00" departLane="158782352#4_0" departPos="5.10" departSpeed="15.54" departDelay="0.57" arrival="297.00" arrivalLane="-152086640#0_0" arrivalPos="79.00" arrivalSpeed="15.49" duration="258.00" routeLength="1975.41" waitingTime="95.00" waitingCount="4" stopTime="0.00" timeLoss="130.12" rerouteNo="0" devices="tripinfo_84" vType="0" speedFactor="1.12" vaporized=""/>
    <tripinfo id="1329" depart="146.00" departLane="302240826#4_0" departPos="5.10" departSpeed="12.01" departDelay="0.78" arrival="297.00" arrivalLane="286847309#10_0" arrivalPos="128.08" arrivalSpeed="11.81" duration="151.00" routeLength="1234.04" waitingTime="35.00" waitingCount="1" stopTime="0.00" timeLoss="47.43" rerouteNo="0" devices="tripinfo_1329" vType="0" speedFactor="0.86" vaporized=""/>
    <tripinfo id="1490" depart="148.00" departLane="-496339476#3_0" departPos="5.10" departSpeed="13.62" departDelay="0.00" arrival="298.00" arrivalLane="286847309#10_0" arrivalPos="128.08" arrivalSpeed="12.97" duration="150.00" routeLength="803.80" waitingTime="67.00" waitingCount="3" stopTime="0.00" timeLoss="90.91" rerouteNo="0" devices="tripinfo_1490" vType="0" speedFactor="0.98" vaporized=""/>
    <tripinfo id="42" depart="223.00" departLane="-306997496#1_0" departPos="5.10" departSpeed="12.92" departDelay="0.73" arrival="298.00" arrivalLane="306997515#4_0" arrivalPos="123.08" arrivalSpeed="12.05" duration="75.00" routeLength="401.62" waitingTime="35.00" waitingCount="1" stopTime="0.00" timeLoss="43.19" rerouteNo="0" devices="tripinfo_42" vType="0" speedFactor="0.93" vaporized=""/>
    <tripinfo id="1138" depart="17.00" departLane="-160913587_0" departPos="5.10" departSpeed="8.32" departDelay="0.79" arrival="299.00" arrivalLane="496339475#0_0" arrivalPos="152.58" arrivalSpeed="11.39" duration="282.00" routeLength="1797.39" waitingTime="97.00" waitingCount="4" stopTime="0.00" timeLoss="137.40" rerouteNo="0" devices="tripinfo_1138" vType="0" speedFactor="0.90" vaporized=""/>