<?xml version="1.0" encoding="UTF-8"?>

<!-- generated on 2023-05-06 21:06:33 by Eclipse SUMO sumo Version 1.16.0
<configuration xmlns:xsi="http://www.w3.org/2001/XMLSchema-instance" xsi:noNamespaceSchemaLocation="http://sumo.dlr.de/xsd/sumoConfiguration.xsd">

    <input>
        <net-file value="data/01/Tainan.net.xml"/>
        <route-files value="data/01/od_route_file.odtrips20.rou.xml"/>
        <additional-files value="data/01/Tainan.det.xml"/>
    </input>

    <output>
        <tripinfo-output value="Experiment_result/tripinfo20.xml"/>
    </output>

    <time>
        <begin value="0"/>
    </time>

    <traci_server>
        <remote-port value="33193"/>
    </traci_server>

</configuration>
-->

<tripinfos xmlns:xsi="http://www.w3.org/2001/XMLSchema-instance" xsi:noNamespaceSchemaLocation="http://sumo.dlr.de/xsd/tripinfo_file.xsd">
    <tripinfo id="1752" depart="37.00" departLane="227913938#0_0" departPos="5.10" departSpeed="14.42" departDelay="0.42" arrival="78.00" arrivalLane="-496253674#1_0" arrivalPos="138.20" arrivalSpeed="13.31" duration="41.00" routeLength="482.02" waitingTime="0.00" waitingCount="0" stopTime="0.00" timeLoss="6.70" rerouteNo="0" devices="tripinfo_1752" vType="0" speedFactor="1.04" vaporized=""/>
    <tripinfo id="728" depart="16.00" departLane="152086640#0_0" departPos="5.10" departSpeed="11.66" departDelay="0.62" arrival="104.00" arrivalLane="-158783758#6_0" arrivalPos="130.70" arrivalSpeed="10.37" duration="88.00" routeLength="965.18" waitingTime="0.00" waitingCount="0" stopTime="0.00" timeLoss="5.04" rerouteNo="0" devices="tripinfo_728" vType="0" speedFactor="0.84" vaporized=""/>
    <tripinfo id="202" depart="12.00" departLane="158783758#2_0" departPos="5.10" departSpeed="13.07" departDelay="0.43" arrival="114.00" arrivalLane="-158995079#1_0" arrivalPos="233.89" arrivalSpeed="12.44" duration="102.00" routeLength="640.68" waitingTime="35.00" waitingCount="2" stopTime="0.00" timeLoss="52.29" rerouteNo="0" devices="tripinfo_202" vType="0" speedFactor="0.94" vaporized=""/>
    <tripinfo id="1761" depart="73.00" departLane="227913938#0_0" departPos="5.10" departSpeed="13.50" departDelay="0.00" arrival="123.00" arrivalLane="-499302825#3_0" arrivalPos="134.22" arrivalSpeed="12.50" duration="50.00" routeLength="582.55" waitingTime="0.00" waitingCount="0" stopTime="0.00" timeLoss="6.14" rerouteNo="0" devices="tripinfo_1761" vType="0" speedFactor="0.97" vaporized=""/>
    <tripinfo id="1303" depart="74.00" departLane="302240826#4_0" departPos="5.10" departSpeed="11.69" departDelay="0.66" arrival="130.00" arrivalLane="-302240826#6_1" arrivalPos="134.74" arrivalSpeed="10.55" duration="56.00" routeLength="538.06" waitingTime="1.00" waitingCount="1" stopTime="0.00" timeLoss="9.33" rerouteNo="0" devices="tripinfo_1303" vType="0" speedFactor="0.84" vaporized=""/>
    <tripinfo id="280" depart="83.00" departLane="297757252#0_0" departPos="5.10" departSpeed="14.10" departDelay="0.61" arrival="132.00" arrivalLane="306997496#0_0" arrivalPos="124.14" arrivalSpeed="14.07" duration="49.00" routeLength="631.47" waitingTime="0.00" waitingCount="0" stopTime="0.00" timeLoss="4.10" rerouteNo="0" devices="tripinfo_280" vType="0" speedFactor="1.01" vaporized=""/>
    <tripinfo id="27" depart="14.00" departLane="-306997496#1_0" departPos="5.10" departSpeed="15.39" departDelay="0.08" arrival="135.00" arrivalLane="-158783758#6_0" arrivalPos="130.70" arrivalSpeed="15.01" duration="121.00" routeLength="1131.12" waitingTime="23.00" waitingCount="2" stopTime="0.00" timeLoss="47.06" rerouteNo="0" devices="tripinfo_27" vType="0" speedFactor="1.11" vaporized=""/>
    <tripinfo id="951" depart="50.00" departLane="-160913587_0" departPos="5.10" departSpeed="13.01" departDelay="0.47" arrival="138.00" arrivalLane="-499302825#3_0" arrivalPos="134.22" arrivalSpeed="11.97" duration="88.00" routeLength="992.61" waitingTime="2.00" waitingCount="1" stopTime="0.00" timeLoss="11.74" rerouteNo="0" devices="tripinfo_951" vType="0" speedFactor="0.94" vaporized=""/>
    <tripinfo id="1749" depart="26.00" departLane="-521131212#2_0" departPos="5.10" departSpeed="13.47" departDelay="0.30" arrival="149.00" arrivalLane="286094870#15_0" arrivalPos="132.77" arrivalSpeed="12.84" duration="123.00" routeLength="642.12" waitingTime="56.00" waitingCount="3" stopTime="0.00" timeLoss="74.82" rerouteNo="0" devices="tripinfo_1749" vType="0" speedFactor="0.97" vaporized=""/>
    <tripinfo id="1476" depart="39.00" departLane="-496253677#23_0" departPos="5.10" departSpeed="11.12" departDelay="0.16" arrival="150.00" arrivalLane="286847309#10_0" arrivalPos="128.08" arrivalSpeed="10.33" duration="111.00" routeLength="388.18" waitingTime="63.00" waitingCount="2" stopTime="0.00" timeLoss="75.57" rerouteNo="0" devices="tripinfo_1476" vType="0" speedFactor="0.80" vaporized=""/>
    <tripinfo id="1511" depart="77.00" departLane="-286094870#18_0" departPos="5.10" departSpeed="14.55" departDelay="0.14" arrival="150.00" arrivalLane="-496253674#1_0" arrivalPos="138.20" arrivalSpeed="13.79" duration="73.00" routeLength="875.80" waitingTime="2.00" waitingCount="1" stopTime="0.00" timeLoss="11.87" rerouteNo="0" devices="tripinfo_1511" vType="0" speedFactor="1.05" vaporized=""/>
    <tripinfo id="1305" depart="127.00" departLane="302240826#4_0" departPos="5.10" departSpeed="14.29" departDelay="0.07" arrival="155.00" arrivalLane="41389166#5_0" arrivalPos="133.15" arrivalSpeed="14.13" duration="28.00" routeLength="354.80" waitingTime="0.00" waitingCount="0" stopTime="0.00" timeLoss="2.45" rerouteNo="0" devices="tripinfo_1305" vType="0" speedFactor="1.03" vaporized=""/>
    <tripinfo id="476" depart="26.00" departLane="279365144#1_0" departPos="5.10" departSpeed="13.12" departDelay="0.74" arrival="159.00" arrivalLane="297757244#1_1" arrivalPos="216.85" arrivalSpeed="12.80" duration="133.00" routeLength="979.22" waitingTime="38.00" waitingCount="3" stopTime="0.00" timeLoss="57.74" rerouteNo="0" devices="tripinfo_476" vType="0" speedFactor="0.94" vaporized=""/>
    <tripinfo id="784" depart="62.00" departLane="41389169#12_0" departPos="5.10" departSpeed="12.57" departDelay="0.97" arrival="161.00" arrivalLane="-160253722#3_1" arrivalPos="117.49" arrivalSpeed="11.31" duration="99.00" routeLength="550.22" waitingTime="40.00" waitingCount="2" stopTime="0.00" timeLoss="54.49" rerouteNo="0" devices="tripinfo_784" vType="0" speedFactor="0.91" vaporized=""/>
    <tripinfo id="692" depart="29.00" departLane="41389169#12_0" departPos="5.10" departSpeed="12.82" departDelay="0.01" arrival="162.00" arrivalLane="-227913938#6_0" arrivalPos="166.49" arrivalSpeed="11.57" duration="133.00" routeLength="1364.07" waitingTime="8.00" waitingCount="2" stopTime="0.00" timeLoss="26.55" rerouteNo="0" devices="tripinfo_692" vType="0" speedFactor="0.92" vaporized=""/>
    <tripinfo id="2001" depart="54.00" departLane="227913938#0_0" departPos="5.10" departSpeed="11.90" departDelay="0.27" arrival="163.00" arrivalLane="286094870#15_0" arrivalPos="132.77" arrivalSpeed="11.17" duration="109.00" routeLength="1082.43" waitingTime="0.00" waitingCount="0" stopTime="0.00" timeLoss="17.34" rerouteNo="0" devices="tripinfo_2001" vType="0" speedFactor="0.86" vaporized=""/>
    <tripinfo id="1508" depart="18.00" departLane="-286094870#18_0" departPos="5.10" departSpeed="11.43" departDelay="0.71" arrival="166.00" arrivalLane="-227913938#6_0" arrivalPos="166.49" arrivalSpeed="10.42" duration="148.00" routeLength="1073.87" waitingTime="41.00" waitingCount="1" stopTime="0.00" timeLoss="53.68" rerouteNo="0" devices="tripinfo_1508" vType="0" speedFactor="0.82" vaporized=""/>
    <tripinfo id="502" depart="57.00" departLane="-72871334#3_0" departPos="5.10" departSpeed="9.36" departDelay="0.31" arrival="174.00" arrivalLane="-160253722#3_1" arrivalPos="117.49" arrivalSpeed="12.51" duration="117.00" routeLength="1313.90" waitingTime="2.00" waitingCount="1" stopTime="0.00" timeLoss="20.87" rerouteNo="0" devices="tripinfo_502" vType="0" speedFactor="0.99" vaporized=""/>
    <tripinfo id="661" depart="7.00" departLane="31794904#1_0" departPos="5.10" departSpeed="11.21" departDelay="0.37" arrival="176.00" arrivalLane="-496253674#1_0" arrivalPos="138.20" arrivalSpeed="10.05" duration="169.00" routeLength="1383.64" waitingTime="20.00" waitingCount="2" stopTime="0.00" timeLoss="44.95" rerouteNo="0" devices="tripinfo_661" vType="0" speedFactor="0.81" vaporized=""/>
    <tripinfo id="496" depart="88.00" departLane="-228022792#1_1" departPos="5.10" departSpeed="14.53" departDelay="0.15" arrival="189.00" arrivalLane="-152086640#0_0" arrivalPos="79.00" arrivalSpeed="14.38" duration="101.00" routeLength="809.27" waitingTime="32.00" waitingCount="1" stopTime="0.00" timeLoss="45.23" rerouteNo="0" devices="tripinfo_496" vType="0" speedFactor="1.05" vaporized=""/>
    <tripinfo id="112" depart="109.00" departLane="158895309#2_0" departPos="5.10" departSpeed="14.14" departDelay="0.58" arrival="194.00" arrivalLane="306997493#0_0" arrivalPos="121.52" arrivalSpeed="13.64" duration="85.00" routeLength="634.86" waitingTime="27.00" waitingCount="2" stopTime="0.00" timeLoss="39.20" rerouteNo="0" devices="tripinfo_112" vType="0" speedFactor="1.02" vaporized=""/>
    <tripinfo id="1002" depart="36.00" departLane="160253722#1_0" departPos="5.10" departSpeed="13.80" departDelay="0.12" arrival="202.00" arrivalLane="-81509011#2_0" arrivalPos="180.79" arrivalSpeed="13.62" duration="166.00" routeLength="1548.49" waitingTime="35.00" waitingCount="2" stopTime="0.00" timeLoss="53.45" rerouteNo="0" devices="tripinfo_1002" vType="0" speedFactor="0.99" vaporized=""/>
    <tripinfo id="1000" depart="41.00" departLane="160253722#1_1" departPos="5.10" departSpeed="13.24" departDelay="0.30" arrival="205.00" arrivalLane="-81509011#2_0" arrivalPos="180.79" arrivalSpeed="13.17" duration="164.00" routeLength="1548.49" waitingTime="27.00" waitingCount="2" stopTime="0.00" timeLoss="46.99" rerouteNo="0" devices="tripinfo_1000" vType="0" speedFactor="0.95" vaporized=""/>
    <tripinfo id="934" depart="134.00" departLane="-160913587_0" departPos="5.10" departSpeed="13.61" departDelay="0.14" arrival="205.00" arrivalLane="-496253674#1_0" arrivalPos="138.20" arrivalSpeed="13.41" duration="71.00" routeLength="892.08" waitingTime="0.00" waitingCount="0" stopTime="0.00" timeLoss="4.78" rerouteNo="0" devices="tripinfo_934" vType="0" speedFactor="0.98" vaporized=""/>
    <tripinfo id="450" depart="40.00" departLane="-556031052#2_0" departPos="5.10" departSpeed="13.43" departDelay="0.92" arrival="210.00" arrivalLane="-158995079#1_0" arrivalPos="233.89" arrivalSpeed="13.04" duration="170.00" routeLength="1295.96" waitingTime="52.00" waitingCount="2" stopTime="0.00" timeLoss="72.59" rerouteNo="0" devices="tripinfo_450" vType="0" speedFactor="0.97" vaporized=""/>
    <tripinfo id="1990" depart="22.00" departLane="499302825#0_0" departPos="5.10" departSpeed="15.68" departDelay="0.21" arrival="212.00" arrivalLane="521131212#2_0" arrivalPos="129.66" arrivalSpeed="14.98" duration="190.00" routeLength="1155.26" waitingTime="84.00" waitingCount="3" stopTime="0.00" timeLoss="115.51" rerouteNo="0" devices="tripinfo_1990" vType="0" speedFactor="1.13" vaporized=""/>
    <tripinfo id="1869" depart="121.00" departLane="227913938#0_0" departPos="5.10" departSpeed="13.23" departDelay="0.37" arrival="215.00" arrivalLane="160913587_0" arrivalPos="125.75" arrivalSpeed="12.98" duration="94.00" routeLength="751.94" waitingTime="27.00" waitingCount="1" stopTime="0.00" timeLoss="36.98" rerouteNo="0" devices="tripinfo_1869" vType="0" speedFactor="0.95" vaporized=""/>
    <tripinfo id="1743" depart="158.00" departLane="228022815#0_0" departPos="5.10" departSpeed="12.19" departDelay="0.07" arrival="222.00" arrivalLane="521131212#2_0" arrivalPos="129.66" arrivalSpeed="11.06" duration="64.00" routeLength="511.33" waitingTime="13.00" waitingCount="1" stopTime="0.00" timeLoss="21.60" rerouteNo="0" devices="tripinfo_1743" vType="0" speedFactor="0.88" vaporized=""/>
    <tripinfo id="1183" depart="47.00" departLane="-160913587_0" departPos="5.10" departSpeed="12.77" departDelay="0.34" arrival="224.00" arrivalLane="521131212#2_0" arrivalPos="129.66" arrivalSpeed="11.90" duration="177.00" routeLength="1576.62" waitingTime="24.00" waitingCount="2" stopTime="0.00" timeLoss="52.85" rerouteNo="0" devices="tripinfo_1183" vType="0" speedFactor="0.92" vaporized=""/>
    <tripinfo id="1281" depart="2.00" departLane="-496332203#2_0" departPos="5.10" departSpeed="13.34" departDelay="0.13" arrival="228.00" arrivalLane="-160253722#3_0" arrivalPos="117.49" arrivalSpeed="12.64" duration="226.00" routeLength="1646.41" waitingTime="73.00" waitingCount="4" stopTime="0.00" timeLoss="101.80" rerouteNo="0" devices="tripinfo_1281" vType="0" speedFactor="0.96" vaporized=""/>
    <tripinfo id="773" depart="125.00" departLane="-71285598#7_0" departPos="5.10" departSpeed="13.26" departDelay="0.33" arrival="235.00" arrivalLane="-152086640#0_0" arrivalPos="79.00" arrivalSpeed="12.57" duration="110.00" routeLength="341.85" waitingTime="71.00" waitingCount="2" stopTime="0.00" timeLoss="83.30" rerouteNo="0" devices="tripinfo_773" vType="0" speedFactor="0.95" vaporized=""/>
    <tripinfo id="1481" depart="126.00" departLane="-496253677#23_0" departPos="5.10" departSpeed="14.09" departDelay="0.58" arrival="238.00" arrivalLane="286847309#10_0" arrivalPos="128.08" arrivalSpeed="13.65" duration="112.00" routeLength="388.18" waitingTime="71.00" waitingCount="2" stopTime="0.00" timeLoss="83.83" rerouteNo="0" devices="tripinfo_1481" vType="0" speedFactor="1.01" vaporized=""/>
    <tripinfo id="1866" depart="150.00" departLane="-24452786#9_0" departPos="5.10" departSpeed="13.61" departDelay="0.22" arrival="238.00" arrivalLane="160913587_0" arrivalPos="125.75" arrivalSpeed="13.19" duration="88.00" routeLength="1027.08" waitingTime="3.00" waitingCount="1" stopTime="0.00" timeLoss="12.31" rerouteNo="0" devices="tripinfo_1866" vType="0" speedFactor="0.98" vaporized=""/>
    <tripinfo id="1734" depart="121.00" departLane="228022815#0_0" departPos="5.10" departSpeed="15.15" departDelay="0.79" arrival="239.00" arrivalLane="41963902#7_0" arrivalPos="139.77" arrivalSpeed="14.87" duration="118.00" routeLength="527.68" waitingTime="71.00" waitingCount="2" stopTime="0.00" timeLoss="82.54" rerouteNo="0" devices="tripinfo_1734" vType="0" speedFactor="1.09" vaporized=""/>
    <tripinfo id="481" depart="121.00" departLane="-228022792#1_0" departPos="5.10" departSpeed="11.62" departDelay="0.58" arrival="240.00" arrivalLane="-41389169#13_0" arrivalPos="100.84" arrivalSpeed="10.69" duration="119.00" routeLength="997.81" waitingTime="13.00" waitingCount="2" stopTime="0.00" timeLoss="32.94" rerouteNo="0" devices="tripinfo_481" vType="0" speedFactor="0.84" vaporized=""/>
    <tripinfo id="898" depart="6.00" departLane="41389169#12_0" departPos="5.10" departSpeed="13.83" departDelay="0.55" arrival="245.00" arrivalLane="286847309#10_0" arrivalPos="128.08" arrivalSpeed="12.87" duration="239.00" routeLength="2419.00" waitingTime="35.00" waitingCount="3" stopTime="0.00" timeLoss="64.00" rerouteNo="0" devices="tripinfo_898" vType="0" speedFactor="1.00" vaporized=""/>
    <tripinfo id="688" depart="71.00" departLane="31794904#1_0" departPos="5.10" departSpeed="12.86" departDelay="0.52" arrival="248.00" arrivalLane="-227913938#6_0" arrivalPos="166.49" arrivalSpeed="12.82" duration="177.00" routeLength="1250.22" waitingTime="57.00" waitingCount="3" stopTime="0.00" timeLoss="79.57" rerouteNo="0" devices="tripinfo_688" vType="0" speedFactor="0.93" vaporized=""/>
    <tripinfo id="498" depart="12.00" departLane="81509011#0_0" departPos="5.10" departSpeed="12.18" departDelay="0.41" arrival="249.00" arrivalLane="-160253722#3_1" arrivalPos="117.49" arrivalSpeed="10.89" duration="237.00" routeLength="1559.14" waitingTime="82.00" waitingCount="3" stopTime="0.00" timeLoss="108.63" rerouteNo="0" devices="tripinfo_498" vType="0" speedFactor="0.88" vaporized=""/>
    <tripinfo id="404" depart="44.00" departLane="158783758#2_0" departPos="5.10" departSpeed="15.17" departDelay="0.73" arrival="249.00" arrivalLane="24452782#7_0" arrivalPos="130.73" arrivalSpeed="14.69" duration="205.00" routeLength="1993.58" waitingTime="55.00" waitingCount="2" stopTime="0.00" timeLoss="73.41" rerouteNo="0" devices="tripinfo_404" vType="0" speedFactor="1.09" vaporized=""/>
    <tripinfo id="427" depart="22.00" departLane="-72871334#3_0" departPos="5.10" departSpeed="15.34" departDelay="0.17" arrival="250.00" arrivalLane="-227913938#6_0" arrivalPos="166.49" arrivalSpeed="15.21" duration="228.00" routeLength="2039.98" waitingTime="43.00" waitingCount="3" stopTime="0.00" timeLoss="94.79" rerouteNo="0" devices="tripinfo_427" vType="0" speedFactor="1.10" vaporized=""/>
    <tripinfo id="340" depart="69.00" departLane="297757252#0_0" departPos="5.10" departSpeed="13.43" departDelay="0.04" arrival="250.00" arrivalLane="496339475#0_0" arrivalPos="152.58" arrivalSpeed="13.00" duration="181.00" routeLength="1662.71" waitingTime="27.00" waitingCount="4" stopTime="0.00" timeLoss="56.53" rerouteNo="0" devices="tripinfo_340" vType="0" speedFactor="0.97" vaporized=""/>
    <tripinfo id="1152" depart="113.00" departLane="-160913587_0" departPos="5.10" departSpeed="13.36" departDelay="0.47" arrival="252.00" arrivalLane="286094870#15_0" arrivalPos="132.77" arrivalSpeed="13.20" duration="139.00" routeLength="1198.60" waitingTime="29.00" waitingCount="2" stopTime="0.00" timeLoss="49.11" rerouteNo="0" devices="tripinfo_1152" vType="0" speedFactor="0.96" vaporized=""/>
    <tripinfo id="680" depart="39.00" departLane="41389169#12_0" departPos="5.10" departSpeed="11.81" departDelay="0.69" arrival="257.00" arrivalLane="-227913938#6_0" arrivalPos="166.49" arrivalSpeed="11.60" duration="218.00" routeLength="1364.07" waitingTime="71.00" waitingCount="5" stopTime="0.00" timeLoss="102.05" rerouteNo="0" devices="tripinfo_680" vType="0" speedFactor="0.85" vaporized=""/>
    <tripinfo id="1833" depart="13.00" departLane="227913938#0_0" departPos="5.10" departSpeed="11.51" departDelay="0.24" arrival="261.00" arrivalLane="72871334#1_0" arrivalPos="116.44" arrivalSpeed="10.77" duration="248.00" routeLength="2062.62" waitingTime="45.00" waitingCount="2" stopTime="0.00" timeLoss="68.48" rerouteNo="0" devices="tripinfo_1833" vType="0" speedFactor="0.83" vaporized=""/>
    <tripinfo id="423" depart="36.00" departLane="-228022792#1_0" departPos="5.10" departSpeed="13.72" departDelay="0.24" arrival="267.00" arrivalLane="-496253674#1_0" arrivalPos="138.20" arrivalSpeed="12.56" duration="231.00" routeLength="2197.49" waitingTime="26.00" waitingCount="3" stopTime="0.00" timeLoss="70.73" rerouteNo="0" devices="tripinfo_423" vType="0" speedFactor="0.99" vaporized=""/>
    <tripinfo id="1680" depart="68.00" departLane="228022815#0_0" departPos="5.10" departSpeed="13.17" departDelay="0.32" arrival="269.00" arrivalLane="-302240826#6_1" arrivalPos="134.74" arrivalSpeed="12.17" duration="201.00" routeLength="1277.38" waitingTime="72.00" waitingCount="4" stopTime="0.00" timeLoss="103.64" rerouteNo="0" devices="tripinfo_1680" vType="0" speedFactor="0.95" vaporized=""/>
    <tripinfo id="687" depart="114.00" departLane="41389169#12_0" departPos="5.10" departSpeed="13.25" departDelay="0.16" arrival="271.00" arrivalLane="-496253674#1_0" arrivalPos="138.20" arrivalSpeed="12.71" duration="157.00" routeLength="1497.49" waitingTime="10.00" waitingCount="2" stopTime="0.00" timeLoss="43.65" rerouteNo="0" devices="tripinfo_687" vType="0" speedFactor="0.95" vaporized=""/>
    <tripinfo id="1698" depart="13.00" departLane="228022815#0_0" departPos="5.10" departSpeed="12.38" departDelay="0.04" arrival="274.00" arrivalLane="41389166#5_0" arrivalPos="133.15" arrivalSpeed="12.21" duration="261.00" routeLength="1354.86" waitingTime="121.00" waitingCount="4" stopTime="0.00" timeLoss="150.65" rerouteNo="0" devices="tripinfo_1698" vType="0" speedFactor="0.89" vaporized=""/>
    <tripinfo id="544" depart="59.00" departLane="279365144#1_0" departPos="5.10" departSpeed="13.50" departDelay="0.76" arrival="283.00" arrivalLane="303889712#5_0" arrivalPos="123.50" arrivalSpeed="12.25" duration="224.00" routeLength="1626.96" waitingTime="88.00" waitingCount="2" stopTime="0.00" timeLoss="102.96" rerouteNo="0" devices="tripinfo_544" vType="0" speedFactor="0.97" vaporized=""/>
    <tripinfo id="316" depart="1.00" departLane="158783758#2_0" departPos="5.10" departSpeed="14.03" departDelay="0.00" arrival="284.00" arrivalLane="41389166#5_0" arrivalPos="133.15" arrivalSpeed="13.09" duration="283.00" routeLength="1667.18" waitingTime="132.00" waitingCount="5" stopTime="0.00" timeLoss="163.39" rerouteNo="0" devices="tripinfo_316" vType="0" speedFactor="1.01" vaporized=""/>
    <tripinfo id="453" depart="18.00" departLane="-228022792#1_0" departPos="5.10" departSpeed="12.48" departDelay="0.17" arrival="284.00" arrivalLane="315886539#2_0" arrivalPos="124.84" arrivalSpeed="11.21" duration="266.00" routeLength="1776.36" waitingTime="94.00" waitingCount="3" stopTime="0.00" timeLoss="122.92" rerouteNo="0" devices="tripinfo_453" vType="0" speedFactor="0.90" vaporized=""/>
    <tripinfo id="1978" depart="48.00" departLane="496253674#0_0" departPos="5.10" departSpeed="14.34" departDelay="0.21" arrival="284.00" arrivalLane="496253677#22_0" arrivalPos="135.88" arrivalSpeed="13.11" duration="236.00" routeLength="1649.11" waitingTime="68.00" waitingCount="4" stopTime="0.00" timeLoss="120.50" rerouteNo="0" devices="tripinfo_1978" vType="0" speedFactor="1.03" vaporized=""/>
    <tripinfo id="1325" depart="117.00" departLane="-161010072#5_0" departPos="5.10" departSpeed="14.78" departDelay="0.03" arrival="284.00" arrivalLane="521131212#2_0" arrivalPos="129.66" arrivalSpeed="14.27" duration="167.00" routeLength="1291.34" waitingTime="56.00" waitingCount="2" stopTime="0.00" timeLoss="79.05" rerouteNo="0" devices="tripinfo_1325" vType="0" speedFactor="1.06" vaporized=""/>
    <tripinfo id="782" depart="125.00" departLane="152086640#0_0" departPos="5.10" departSpeed="12.18" departDelay="0.17" arrival="284.00" arrivalLane="-160253722#3_1" arrivalPos="117.49" arrivalSpeed="10.99" duration="159.00" routeLength="836.97" waitingTime="66.00" waitingCount="3" stopTime="0.00" timeLoss="89.98" rerouteNo="0" devices="tripinfo_782" vType="0" speedFactor="0.88" vaporized=""/>
    <tripinfo id="930" depart="146.00" departLane="160253722#1_0" departPos="5.10" departSpeed="14.35" departDelay="0.00" arrival="284.00" arrivalLane="-499302825#3_0" arrivalPos="134.22" arrivalSpeed="13.27" duration="138.00" routeLength="1494.06" waitingTime="6.00" waitingCount="1" stopTime="0.00" timeLoss="33.49" rerouteNo="0" devices="tripinfo_930" vType="0" speedFactor="1.03" vaporized=""/>
    <tripinfo id="131" depart="71.00" departLane="158782352#4_0" departPos="5.10" departSpeed="12.74" departDelay="0.90" arrival="285.00" arrivalLane="496339476#0_0" arrivalPos="147.92" arrivalSpeed="11.87" duration="214.00" routeLength="1240.69" waitingTime="86.00" waitingCount="5" stopTime="0.00" timeLoss="116.13" rerouteNo="0" devices="tripinfo_131" vType="0" speedFactor="0.92" vaporized=""/>
    <tripinfo id="439" depart="2.00" departLane="-72871334#3_0" departPos="5.10" departSpeed="12.34" departDelay="0.67" arrival="287.00" arrivalLane="27067557#0_0" arrivalPos="135.00" arrivalSpeed="11.66" duration="285.00" routeLength="2438.16" waitingTime="56.00" waitingCount="3" stopTime="0.00" timeLoss="87.21" rerouteNo="0" devices="tripinfo_439" vType="0" speedFactor="0.89" vaporized=""/>
    <tripinfo id="1082" depart="18.00" departLane="160253722#1_1" departPos="5.10" departSpeed="12.05" departDelay="0.61" arrival="287.00" arrivalLane="161010072#3_0" arrivalPos="141.87" arrivalSpeed="11.22" duration="269.00" routeLength="1811.56" waitingTime="77.00" waitingCount="4" stopTime="0.00" timeLoss="118.60" rerouteNo="0" devices="tripinfo_1082" vType="0" speedFactor="0.87" vaporized=""/>
    <tripinfo id="34" depart="140.00" departLane="-571719005#1_0" departPos="5.10" departSpeed="12.58" departDelay="0.21" arrival="287.00" arrivalLane="315886539#2_0" arrivalPos="124.84" arrivalSpeed="12.41" duration="147.00" routeLength="1055.61" waitingTime="40.00" waitingCount="3" stopTime="0.00" timeLoss="62.78" rerouteNo="0" devices="tripinfo_34" vType="0" speedFactor="0.91" vaporized=""/>
    <tripinfo id="946" depart="175.00" departLane="-160913587_0" departPos="5.10" departSpeed="11.46" departDelay="0.44" arrival="289.00" arrivalLane="-227913938#6_0" arrivalPos="166.49" arrivalSpeed="11.28" duration="114.00" routeLength="758.66" waitingTime="36.00" waitingCount="1" stopTime="0.00" timeLoss="46.96" rerouteNo="0" devices="tripinfo_946" vType="0" speedFactor="0.82" vaporized=""/>
    <tripinfo id="205" depart="176.00" departLane="162442431#0_0" departPos="5.10" departSpeed="14.70" departDelay="0.56" arrival="291.00" arrivalLane="306997515#4_0" arrivalPos="123.08" arrivalSpeed="13.70" duration="115.00" routeLength="783.48" waitingTime="50.00" waitingCount="2" stopTime="0.00" timeLoss="61.28" rerouteNo="0" devices="tripinfo_205" vType="0" speedFactor="1.06" vaporized=""/>
    <tripinfo id="794" depart="77.00" departLane="-71285598#7_0" departPos="5.10" departSpeed="14.88" departDelay="0.82" arrival="294.00" arrivalLane="-158782352#5_0" arrivalPos="65.18" arrivalSpeed="14.67" duration="217.00" routeLength="1788.38" waitingTime="69.00" waitingCount="3" stopTime="0.00" timeLoss="96.72" rerouteNo="0" devices="tripinfo_794" vType="0" speedFactor="1.07" vaporized=""/>
    <tripinfo id="1736" depart="114.00" departLane="-286094870#18_0" departPos="5.10" departSpeed="13.41" departDelay="0.67" arrival="294.00" arrivalLane="41963902#7_0" arrivalPos="139.77" arrivalSpeed="13.34" duration="180.00" routeLength="1170.03" waitingTime="71.00" waitingCount="3" stopTime="0.00" timeLoss="92.52" rerouteNo="0" devices="tripinfo_1736" vType="0" speedFactor="0.97" vaporized=""/>
    <tripinfo id="1970" depart="10.00" departLane="159307912_0" departPos="5.10" departSpeed="13.85" departDelay="0.87" arrival="296.00" arrivalLane="496339475#0_0" arrivalPos="152.58" arrivalSpeed="12.73" duration="286.00" routeLength="1889.39" waitingTime="120.00" waitingCount="4" stopTime="0.00" timeLoss="149.15" rerouteNo="0" devices="tripinfo_1970" vType="0" speedFactor="1.00" vaporized=""/>
    <tripinfo id="1975" depart="35.00" departLane="159307912_0" departPos="5.10" departSpeed="14.47" departDelay="0.26" arrival="296.00" arrivalLane="41963902#7_0" arrivalPos="139.77" arrivalSpeed="14.14" duration="261.00" routeLength="1513.23" waitingTime="111.00" waitingCount="5" stopTime="0.00" timeLoss="155.99" rerouteNo="0" devices="tripinfo_1975" vType="0" speedFactor="1.04" vaporized=""/>
    <tripinfo id="1382" depart="104.00" departLane="-496339475#2_0" departPos="5.10" departSpeed="14.84" departDelay="0.84" arrival="297.00" arrivalLane="315886539#2_0" arrivalPos="124.84" arrivalSpeed="14.82" duration="193.00" routeLength="1689.09" waitingTime="43.00" waitingCount="4" stopTime="0.00" timeLoss="78.39" rerouteNo="0" devices="tripinfo_1382" vType="0" speedFactor="1.07" vaporized=""/>
    <tripinfo id="1971" depart="31.00" departLane="499302825#0_0" departPos="5.10" departSpeed="13.62" departDelay="0.06" arrival="298.00" arrivalLane="41963902#7_0" arrivalPos="139.77" arrivalSpeed="12.77" duration="267.00" routeLength="1672.44" waitingTime="96.00" waitingCount="4" stopTime="0.00" timeLoss="143.65" rerouteNo="0" devices="tripinfo_1971" vType="0" speedFactor="0.98" vaporized=""/>
    <tripinfo id="681" depart="74.00" departLane="152086640#0_0" departPos="5.10" departSpeed="10.88" departDelay="0.17" arrival="298.00" arrivalLane="-499302825#3_0" arrivalPos="134.22" arrivalSpeed="10.26" duration="224.00" routeLength="1884.77" waitingTime="26.00" waitingCount="2" stopTime="0.00" timeLoss="50.52" rerouteNo="0" devices="tripinfo_681" vType="0" speedFactor="0.78" vaporized=""/>
    <tripinfo id="1889" depart="191.00" departLane="496253674#0_0" departPos="5.10" departSpeed="13.41" departDelay="0.38" arrival="298.00" arrivalLane="160913587_0" arrivalPos="125.75" arrivalSpeed="12.77" duration="107.00" routeLength="887.02" waitingTime="30.00" waitingCount="1" stopTime="0.00" timeLoss="40.64" rerouteNo="0" devices="tripinfo_1889" vType="0" speedFactor="0.97" vaporized=""/>
    <tripinfo id="1135" depart="38.00" departLane="160253722#1_1" departPos="5.10" departSpeed="13.16" departDelay="0.67" arrival="301.00" arrivalLane="496339475#0_0" arrivalPos="152.58" arrivalSpeed="12.81" duration="263.00" routeLength="1934.97" waitingTime="70.00" waitingCount="7" stopTime="0.00" timeLoss="115.08" rerouteNo="0" devices="tripinfo_1135" vType="0" speedFactor="0.95" vaporized=""/>
    <tripinfo id="1681" depart="131.00" departLane="228022815#0_0" departPos="5.10" departSpeed="14.27" departDelay="0.11" arrival="301.00" arrivalLane="161010072#3_0" arrivalPos="141.87" arrivalSpeed="14.16" duration="170.00" routeLength="1046.41" waitingTime="83.00" waitingCount="2" stopTime="0.00" timeLoss="96.52" rerouteNo="0" devices="tripinfo_1681" vType="0" speedFactor="1.03" vaporized=""/>
    <tripinfo id="420" depart="50.00" departLane="-72871334#3_0" departPos="5.10" departSpeed="12.33" departDelay="0.24" arrival="302.00" arrivalLane="27067557#0_0" arrivalPos="135.00" arrivalSpeed="11.77" duration="252.00" routeLength="2437.56" waitingTime="9.00" waitingCount="2" stopTime="0.00" timeLoss="54.13" rerouteNo="0" devices="tripinfo_420" vType="0" speedFactor="0.89" vaporized=""/>
    <tripinfo id="880" depart="93.00" departLane="41389169#12_0" departPos="5.10" departSpeed="13.26" departDelay="0.03" arrival="302.00" arrivalLane="496339475#0_0" arrivalPos="152.58" arrivalSpeed="13.02" duration="209.00" routeLength="2147.96" waitingTime="18.00" waitingCount="3" stopTime="0.00" timeLoss="46.86" rerouteNo="0" devices="tripinfo_880" vType="0" speedFactor="0.95" vaporized=""/>