<?xml version="1.0" encoding="UTF-8"?>

<!-- generated on 2023-04-28 11:36:51 by Eclipse SUMO sumo Version 1.14.0
<configuration xmlns:xsi="http://www.w3.org/2001/XMLSchema-instance" xsi:noNamespaceSchemaLocation="http://sumo.dlr.de/xsd/sumoConfiguration.xsd">

    <input>
        <net-file value="Tainan.net.xml"/>
        <route-files value="od_route_file.odtrips13.rou.xml"/>
        <additional-files value="Tainan.det.xml"/>
    </input>

    <output>
        <tripinfo-output value="Experiment/tripinfo13.xml"/>
    </output>

    <time>
        <begin value="0"/>
    </time>

</configuration>
-->

<tripinfos xmlns:xsi="http://www.w3.org/2001/XMLSchema-instance" xsi:noNamespaceSchemaLocation="http://sumo.dlr.de/xsd/tripinfo_file.xsd">
    <tripinfo id="1749" depart="36.00" departLane="-521131212#2_0" departPos="5.10" departSpeed="15.69" departDelay="0.49" arrival="77.00" arrivalLane="286847309#10_0" arrivalPos="128.08" arrivalSpeed="15.21" duration="41.00" routeLength="523.93" waitingTime="0.00" waitingCount="0" stopTime="0.00" timeLoss="6.91" rerouteNo="0" devices="tripinfo_1749" vType="0" speedFactor="1.13" vaporized=""/>
    <tripinfo id="28" depart="56.00" departLane="-303889712#6_0" departPos="5.10" departSpeed="13.43" departDelay="0.94" arrival="101.00" arrivalLane="306997515#4_0" arrivalPos="123.08" arrivalSpeed="12.41" duration="45.00" routeLength="561.36" waitingTime="0.00" waitingCount="0" stopTime="0.00" timeLoss="2.60" rerouteNo="0" devices="tripinfo_28" vType="0" speedFactor="0.97" vaporized=""/>
    <tripinfo id="458" depart="54.00" departLane="81509011#0_0" departPos="5.10" departSpeed="11.12" departDelay="0.14" arrival="113.00" arrivalLane="-81509011#2_0" arrivalPos="180.79" arrivalSpeed="10.84" duration="59.00" routeLength="588.30" waitingTime="0.00" waitingCount="0" stopTime="0.00" timeLoss="5.56" rerouteNo="0" devices="tripinfo_458" vType="0" speedFactor="0.80" vaporized=""/>
    <tripinfo id="1035" depart="12.00" departLane="-160913587_0" departPos="5.10" departSpeed="13.07" departDelay="0.06" arrival="147.00" arrivalLane="-31794904#2_0" arrivalPos="104.17" arrivalSpeed="11.82" duration="135.00" routeLength="913.65" waitingTime="49.00" waitingCount="2" stopTime="0.00" timeLoss="64.62" rerouteNo="0" devices="tripinfo_1035" vType="0" speedFactor="0.94" vaporized=""/>
    <tripinfo id="950" depart="26.00" departLane="-160913587_0" departPos="5.10" departSpeed="12.48" departDelay="0.02" arrival="150.00" arrivalLane="24452786#7_0" arrivalPos="134.15" arrivalSpeed="12.08" duration="124.00" routeLength="1031.50" waitingTime="24.00" waitingCount="2" stopTime="0.00" timeLoss="40.69" rerouteNo="0" devices="tripinfo_950" vType="0" speedFactor="0.90" vaporized=""/>
    <tripinfo id="110" depart="62.00" departLane="-303889712#6_0" departPos="5.10" departSpeed="11.79" departDelay="0.50" arrival="152.00" arrivalLane="-158782352#5_0" arrivalPos="65.18" arrivalSpeed="10.87" duration="90.00" routeLength="458.66" waitingTime="39.00" waitingCount="2" stopTime="0.00" timeLoss="50.98" rerouteNo="0" devices="tripinfo_110" vType="0" speedFactor="0.85" vaporized=""/>
    <tripinfo id="281" depart="1.00" departLane="297757252#0_0" departPos="5.10" departSpeed="14.03" departDelay="0.25" arrival="155.00" arrivalLane="571719005#0_0" arrivalPos="122.71" arrivalSpeed="13.59" duration="154.00" routeLength="862.90" waitingTime="77.00" waitingCount="2" stopTime="0.00" timeLoss="92.04" rerouteNo="0" devices="tripinfo_281" vType="0" speedFactor="1.01" vaporized=""/>
    <tripinfo id="777" depart="59.00" departLane="31794904#1_0" departPos="5.10" departSpeed="13.14" departDelay="0.23" arrival="158.00" arrivalLane="71285598#7_0" arrivalPos="83.53" arrivalSpeed="12.04" duration="99.00" routeLength="531.34" waitingTime="42.00" waitingCount="2" stopTime="0.00" timeLoss="58.24" rerouteNo="0" devices="tripinfo_777" vType="0" speedFactor="0.95" vaporized=""/>
    <tripinfo id="1850" depart="18.00" departLane="227913938#0_0" departPos="5.10" departSpeed="12.31" departDelay="0.96" arrival="159.00" arrivalLane="-31794904#2_0" arrivalPos="104.17" arrivalSpeed="12.03" duration="141.00" routeLength="1374.67" waitingTime="18.00" waitingCount="1" stopTime="0.00" timeLoss="28.73" rerouteNo="0" devices="tripinfo_1850" vType="0" speedFactor="0.89" vaporized=""/>
    <tripinfo id="1040" depart="57.00" departLane="-160913587_0" departPos="5.10" departSpeed="14.53" departDelay="0.75" arrival="161.00" arrivalLane="-31794904#2_0" arrivalPos="104.17" arrivalSpeed="14.34" duration="104.00" routeLength="913.65" waitingTime="23.00" waitingCount="2" stopTime="0.00" timeLoss="40.26" rerouteNo="0" devices="tripinfo_1040" vType="0" speedFactor="1.05" vaporized=""/>
    <tripinfo id="770" depart="99.00" departLane="31794904#1_0" departPos="5.10" departSpeed="13.22" departDelay="0.08" arrival="162.00" arrivalLane="71285598#7_0" arrivalPos="83.53" arrivalSpeed="12.38" duration="63.00" routeLength="531.34" waitingTime="11.00" waitingCount="1" stopTime="0.00" timeLoss="22.68" rerouteNo="0" devices="tripinfo_770" vType="0" speedFactor="0.95" vaporized=""/>
    <tripinfo id="929" depart="11.00" departLane="160253722#1_1" departPos="5.10" departSpeed="13.85" departDelay="0.11" arrival="168.00" arrivalLane="-496253674#1_0" arrivalPos="138.20" arrivalSpeed="12.67" duration="157.00" routeLength="1393.53" waitingTime="30.00" waitingCount="3" stopTime="0.00" timeLoss="55.76" rerouteNo="0" devices="tripinfo_929" vType="0" speedFactor="1.00" vaporized=""/>
    <tripinfo id="1883" depart="2.00" departLane="159307912_0" departPos="5.10" departSpeed="14.34" departDelay="0.35" arrival="195.00" arrivalLane="-160253722#3_0" arrivalPos="117.49" arrivalSpeed="13.35" duration="193.00" routeLength="1722.22" waitingTime="52.00" waitingCount="2" stopTime="0.00" timeLoss="72.05" rerouteNo="0" devices="tripinfo_1883" vType="0" speedFactor="1.03" vaporized=""/>
    <tripinfo id="222" depart="20.00" departLane="158783758#2_0" departPos="5.10" departSpeed="13.34" departDelay="0.92" arrival="203.00" arrivalLane="-41389169#13_0" arrivalPos="100.84" arrivalSpeed="12.40" duration="183.00" routeLength="1236.75" waitingTime="66.00" waitingCount="4" stopTime="0.00" timeLoss="90.23" rerouteNo="0" devices="tripinfo_222" vType="0" speedFactor="0.96" vaporized=""/>
    <tripinfo id="1503" depart="52.00" departLane="-521131212#2_0" departPos="5.10" departSpeed="14.42" departDelay="0.26" arrival="205.00" arrivalLane="27067557#0_0" arrivalPos="135.00" arrivalSpeed="13.85" duration="153.00" routeLength="981.55" waitingTime="64.00" waitingCount="3" stopTime="0.00" timeLoss="84.46" rerouteNo="0" devices="tripinfo_1503" vType="0" speedFactor="1.04" vaporized=""/>
    <tripinfo id="1872" depart="81.00" departLane="227913938#0_0" departPos="5.10" departSpeed="12.82" departDelay="0.35" arrival="210.00" arrivalLane="160913587_0" arrivalPos="125.75" arrivalSpeed="12.04" duration="129.00" routeLength="751.94" waitingTime="63.00" waitingCount="1" stopTime="0.00" timeLoss="70.09" rerouteNo="0" devices="tripinfo_1872" vType="0" speedFactor="0.92" vaporized=""/>
    <tripinfo id="1756" depart="160.00" departLane="496253674#0_0" departPos="5.10" departSpeed="13.61" departDelay="0.44" arrival="211.00" arrivalLane="27067557#0_0" arrivalPos="135.00" arrivalSpeed="13.18" duration="51.00" routeLength="550.15" waitingTime="1.00" waitingCount="1" stopTime="0.00" timeLoss="10.24" rerouteNo="0" devices="tripinfo_1756" vType="0" speedFactor="0.98" vaporized=""/>
    <tripinfo id="34" depart="14.00" departLane="-303889712#6_0" departPos="5.10" departSpeed="12.18" departDelay="0.05" arrival="212.00" arrivalLane="-158995079#1_0" arrivalPos="233.89" arrivalSpeed="11.95" duration="198.00" routeLength="1107.19" waitingTime="83.00" waitingCount="4" stopTime="0.00" timeLoss="106.55" rerouteNo="0" devices="tripinfo_34" vType="0" speedFactor="0.88" vaporized=""/>
    <tripinfo id="778" depart="191.00" departLane="31794904#1_0" departPos="5.10" departSpeed="14.09" departDelay="0.83" arrival="218.00" arrivalLane="-160253722#3_1" arrivalPos="117.49" arrivalSpeed="13.75" duration="27.00" routeLength="340.42" waitingTime="0.00" waitingCount="0" stopTime="0.00" timeLoss="2.74" rerouteNo="0" devices="tripinfo_778" vType="0" speedFactor="1.01" vaporized=""/>
    <tripinfo id="1018" depart="53.00" departLane="160253722#1_1" departPos="5.10" departSpeed="11.81" departDelay="0.53" arrival="223.00" arrivalLane="228022792#0_0" arrivalPos="94.26" arrivalSpeed="11.74" duration="170.00" routeLength="1243.84" waitingTime="47.00" waitingCount="2" stopTime="0.00" timeLoss="64.54" rerouteNo="0" devices="tripinfo_1018" vType="0" speedFactor="0.85" vaporized=""/>
    <tripinfo id="1869" depart="129.00" departLane="159307912_0" departPos="5.10" departSpeed="13.63" departDelay="0.79" arrival="223.00" arrivalLane="160913587_0" arrivalPos="125.75" arrivalSpeed="12.94" duration="94.00" routeLength="1148.91" waitingTime="0.00" waitingCount="0" stopTime="0.00" timeLoss="9.17" rerouteNo="0" devices="tripinfo_1869" vType="0" speedFactor="0.98" vaporized=""/>
    <tripinfo id="42" depart="102.00" departLane="-306997496#1_0" departPos="5.10" departSpeed="13.29" departDelay="0.37" arrival="227.00" arrivalLane="-158783758#6_0" arrivalPos="130.70" arrivalSpeed="12.20" duration="125.00" routeLength="1131.12" waitingTime="21.00" waitingCount="1" stopTime="0.00" timeLoss="39.47" rerouteNo="0" devices="tripinfo_42" vType="0" speedFactor="0.96" vaporized=""/>
    <tripinfo id="527" depart="55.00" departLane="81509011#0_0" departPos="5.10" departSpeed="6.64" departDelay="0.28" arrival="228.00" arrivalLane="306997496#0_0" arrivalPos="124.14" arrivalSpeed="14.77" duration="173.00" routeLength="1619.07" waitingTime="44.00" waitingCount="1" stopTime="0.00" timeLoss="67.89" rerouteNo="0" devices="tripinfo_527" vType="0" speedFactor="1.12" vaporized=""/>
    <tripinfo id="1092" depart="3.00" departLane="160253722#1_1" departPos="5.10" departSpeed="10.85" departDelay="0.39" arrival="233.00" arrivalLane="-302240826#6_0" arrivalPos="134.74" arrivalSpeed="10.12" duration="230.00" routeLength="1600.04" waitingTime="57.00" waitingCount="3" stopTime="0.00" timeLoss="82.36" rerouteNo="0" devices="tripinfo_1092" vType="0" speedFactor="0.78" vaporized=""/>
    <tripinfo id="1136" depart="2.00" departLane="160253722#1_0" departPos="5.10" departSpeed="13.34" departDelay="0.70" arrival="239.00" arrivalLane="496253677#22_0" arrivalPos="135.88" arrivalSpeed="13.01" duration="237.00" routeLength="2403.27" waitingTime="35.00" waitingCount="2" stopTime="0.00" timeLoss="56.07" rerouteNo="0" devices="tripinfo_1136" vType="0" speedFactor="0.96" vaporized=""/>
    <tripinfo id="1504" depart="142.00" departLane="-24452782#8_0" departPos="5.10" departSpeed="15.48" departDelay="0.96" arrival="240.00" arrivalLane="-227913938#6_0" arrivalPos="166.49" arrivalSpeed="15.18" duration="98.00" routeLength="1286.24" waitingTime="2.00" waitingCount="1" stopTime="0.00" timeLoss="14.35" rerouteNo="0" devices="tripinfo_1504" vType="0" speedFactor="1.11" vaporized=""/>
    <tripinfo id="1478" depart="30.00" departLane="-496253677#23_0" departPos="5.10" departSpeed="15.34" departDelay="0.36" arrival="244.00" arrivalLane="286094870#15_0" arrivalPos="132.77" arrivalSpeed="14.47" duration="214.00" routeLength="1032.60" waitingTime="97.00" waitingCount="4" stopTime="0.00" timeLoss="146.64" rerouteNo="0" devices="tripinfo_1478" vType="0" speedFactor="1.10" vaporized=""/>
    <tripinfo id="1512" depart="197.00" departLane="-286094870#18_0" departPos="5.10" departSpeed="13.24" departDelay="0.87" arrival="246.00" arrivalLane="27067557#0_0" arrivalPos="135.00" arrivalSpeed="13.05" duration="49.00" routeLength="603.91" waitingTime="0.00" waitingCount="0" stopTime="0.00" timeLoss="2.47" rerouteNo="0" devices="tripinfo_1512" vType="0" speedFactor="0.95" vaporized=""/>
    <tripinfo id="943" depart="125.00" departLane="160253722#1_1" departPos="5.10" departSpeed="13.26" departDelay="0.36" arrival="249.00" arrivalLane="-227913938#6_0" arrivalPos="166.49" arrivalSpeed="12.01" duration="124.00" routeLength="1258.98" waitingTime="9.00" waitingCount="2" stopTime="0.00" timeLoss="28.68" rerouteNo="0" devices="tripinfo_943" vType="0" speedFactor="0.95" vaporized=""/>
    <tripinfo id="1496" depart="71.00" departLane="-41963902#10_0" departPos="5.10" departSpeed="13.41" departDelay="0.54" arrival="250.00" arrivalLane="286094870#15_0" arrivalPos="132.77" arrivalSpeed="12.19" duration="179.00" routeLength="1164.37" waitingTime="63.00" waitingCount="3" stopTime="0.00" timeLoss="91.64" rerouteNo="0" devices="tripinfo_1496" vType="0" speedFactor="0.97" vaporized=""/>
    <tripinfo id="410" depart="4.00" departLane="-228022792#1_0" departPos="5.10" departSpeed="13.83" departDelay="0.24" arrival="258.00" arrivalLane="-496253674#1_0" arrivalPos="138.20" arrivalSpeed="12.54" duration="254.00" routeLength="2198.62" waitingTime="64.00" waitingCount="3" stopTime="0.00" timeLoss="94.19" rerouteNo="0" devices="tripinfo_410" vType="0" speedFactor="1.00" vaporized=""/>
    <tripinfo id="492" depart="211.00" departLane="-556031052#2_0" departPos="5.10" departSpeed="15.25" departDelay="0.45" arrival="263.00" arrivalLane="297757244#1_1" arrivalPos="216.85" arrivalSpeed="14.32" duration="52.00" routeLength="597.60" waitingTime="1.00" waitingCount="1" stopTime="0.00" timeLoss="11.94" rerouteNo="0" devices="tripinfo_492" vType="0" speedFactor="1.10" vaporized=""/>
    <tripinfo id="111" depart="232.00" departLane="-571719005#1_0" departPos="5.10" departSpeed="13.02" departDelay="0.69" arrival="263.00" arrivalLane="-158782352#5_0" arrivalPos="65.18" arrivalSpeed="12.57" duration="31.00" routeLength="370.49" waitingTime="0.00" waitingCount="0" stopTime="0.00" timeLoss="1.61" rerouteNo="0" devices="tripinfo_111" vType="0" speedFactor="0.94" vaporized=""/>
    <tripinfo id="1624" depart="139.00" departLane="-286094870#18_0" departPos="5.10" departSpeed="14.57" departDelay="0.59" arrival="264.00" arrivalLane="160913587_0" arrivalPos="125.75" arrivalSpeed="14.30" duration="125.00" routeLength="1194.54" waitingTime="29.00" waitingCount="1" stopTime="0.00" timeLoss="44.35" rerouteNo="0" devices="tripinfo_1624" vType="0" speedFactor="1.07" vaporized=""/>
    <tripinfo id="1840" depart="98.00" departLane="227913938#0_0" departPos="5.10" departSpeed="12.86" departDelay="0.27" arrival="265.00" arrivalLane="-31794904#2_0" arrivalPos="104.17" arrivalSpeed="12.11" duration="167.00" routeLength="1374.67" waitingTime="47.00" waitingCount="1" stopTime="0.00" timeLoss="59.80" rerouteNo="0" devices="tripinfo_1840" vType="0" speedFactor="0.93" vaporized=""/>
    <tripinfo id="676" depart="36.00" departLane="31794904#1_0" departPos="5.10" departSpeed="12.82" departDelay="0.93" arrival="269.00" arrivalLane="24452786#7_0" arrivalPos="134.15" arrivalSpeed="12.64" duration="233.00" routeLength="1685.88" waitingTime="74.00" waitingCount="3" stopTime="0.00" timeLoss="100.59" rerouteNo="0" devices="tripinfo_676" vType="0" speedFactor="0.92" vaporized=""/>
    <tripinfo id="750" depart="189.00" departLane="152086640#0_0" departPos="5.10" departSpeed="13.61" departDelay="0.45" arrival="272.00" arrivalLane="-81509011#2_0" arrivalPos="180.79" arrivalSpeed="12.53" duration="83.00" routeLength="895.17" waitingTime="7.00" waitingCount="1" stopTime="0.00" timeLoss="16.99" rerouteNo="0" devices="tripinfo_750" vType="0" speedFactor="0.98" vaporized=""/>
    <tripinfo id="1208" depart="19.00" departLane="302240826#4_0" departPos="5.10" departSpeed="15.39" departDelay="0.97" arrival="273.00" arrivalLane="-227913938#6_0" arrivalPos="166.49" arrivalSpeed="14.28" duration="254.00" routeLength="2278.36" waitingTime="73.00" waitingCount="3" stopTime="0.00" timeLoss="105.20" rerouteNo="0" devices="tripinfo_1208" vType="0" speedFactor="1.11" vaporized=""/>
    <tripinfo id="752" depart="199.00" departLane="-71285598#7_0" departPos="5.10" departSpeed="14.65" departDelay="0.22" arrival="280.00" arrivalLane="228022792#0_0" arrivalPos="94.26" arrivalSpeed="14.25" duration="81.00" routeLength="791.57" waitingTime="10.00" waitingCount="2" stopTime="0.00" timeLoss="26.50" rerouteNo="0" devices="tripinfo_752" vType="0" speedFactor="1.05" vaporized=""/>
    <tripinfo id="235" depart="23.00" departLane="158995079#0_0" departPos="5.10" departSpeed="10.77" departDelay="0.61" arrival="281.00" arrivalLane="71285598#7_0" arrivalPos="83.53" arrivalSpeed="9.93" duration="258.00" routeLength="1328.51" waitingTime="101.00" waitingCount="5" stopTime="0.00" timeLoss="134.50" rerouteNo="0" devices="tripinfo_235" vType="0" speedFactor="0.78" vaporized=""/>
    <tripinfo id="201" depart="211.00" departLane="297757252#0_0" departPos="5.10" departSpeed="10.91" departDelay="0.26" arrival="284.00" arrivalLane="gneE5_0" arrivalPos="123.08" arrivalSpeed="9.77" duration="73.00" routeLength="360.47" waitingTime="31.00" waitingCount="1" stopTime="0.00" timeLoss="39.84" rerouteNo="0" devices="tripinfo_201" vType="0" speedFactor="0.79" vaporized=""/>
    <tripinfo id="1347" depart="90.00" departLane="-496253677#23_0" departPos="5.10" departSpeed="14.40" departDelay="0.02" arrival="285.00" arrivalLane="24452786#7_0" arrivalPos="134.15" arrivalSpeed="13.12" duration="195.00" routeLength="1208.00" waitingTime="61.00" waitingCount="4" stopTime="0.00" timeLoss="110.98" rerouteNo="0" devices="tripinfo_1347" vType="0" speedFactor="1.04" vaporized=""/>
    <tripinfo id="455" depart="226.00" departLane="81509011#0_0" departPos="5.10" departSpeed="15.14" departDelay="0.63" arrival="285.00" arrivalLane="556031052#1_0" arrivalPos="158.06" arrivalSpeed="14.63" duration="59.00" routeLength="517.32" waitingTime="14.00" waitingCount="1" stopTime="0.00" timeLoss="24.58" rerouteNo="0" devices="tripinfo_455" vType="0" speedFactor="1.09" vaporized=""/>
    <tripinfo id="1135" depart="39.00" departLane="-160913587_0" departPos="5.10" departSpeed="11.81" departDelay="1.35" arrival="286.00" arrivalLane="41963902#7_0" arrivalPos="139.77" arrivalSpeed="11.66" duration="247.00" routeLength="1901.95" waitingTime="54.00" waitingCount="3" stopTime="0.00" timeLoss="85.37" rerouteNo="0" devices="tripinfo_1135" vType="0" speedFactor="0.85" vaporized=""/>
    <tripinfo id="1973" depart="79.00" departLane="-24452786#9_0" departPos="5.10" departSpeed="13.50" departDelay="0.54" arrival="287.00" arrivalLane="496253677#22_0" arrivalPos="135.88" arrivalSpeed="13.17" duration="208.00" routeLength="1213.13" waitingTime="86.00" waitingCount="4" stopTime="0.00" timeLoss="117.59" rerouteNo="0" devices="tripinfo_1973" vType="0" speedFactor="0.97" vaporized=""/>
    <tripinfo id="1710" depart="123.00" departLane="-521131212#2_0" departPos="5.10" departSpeed="11.33" departDelay="0.37" arrival="287.00" arrivalLane="496339476#0_0" arrivalPos="147.92" arrivalSpeed="10.92" duration="164.00" routeLength="1062.30" waitingTime="46.00" waitingCount="3" stopTime="0.00" timeLoss="70.03" rerouteNo="0" devices="tripinfo_1710" vType="0" speedFactor="0.82" vaporized=""/>
    <tripinfo id="1296" depart="138.00" departLane="302240826#4_0" departPos="5.10" departSpeed="16.33" departDelay="0.54" arrival="289.00" arrivalLane="-160253722#3_0" arrivalPos="117.49" arrivalSpeed="15.30" duration="151.00" routeLength="1601.27" waitingTime="29.00" waitingCount="3" stopTime="0.00" timeLoss="52.51" rerouteNo="0" devices="tripinfo_1296" vType="0" speedFactor="1.18" vaporized=""/>
    <tripinfo id="1762" depart="220.00" departLane="-24452786#9_0" departPos="5.10" departSpeed="13.77" departDelay="0.89" arrival="290.00" arrivalLane="24452786#7_0" arrivalPos="134.15" arrivalSpeed="12.49" duration="70.00" routeLength="884.13" waitingTime="0.00" waitingCount="0" stopTime="0.00" timeLoss="5.51" rerouteNo="0" devices="tripinfo_1762" vType="0" speedFactor="0.99" vaporized=""/>
    <tripinfo id="457" depart="236.00" departLane="-556031052#2_0" departPos="5.10" departSpeed="10.92" departDelay="0.75" arrival="294.00" arrivalLane="228022792#0_0" arrivalPos="94.26" arrivalSpeed="10.17" duration="58.00" routeLength="544.52" waitingTime="0.00" waitingCount="0" stopTime="0.00" timeLoss="7.97" rerouteNo="0" devices="tripinfo_457" vType="0" speedFactor="0.79" vaporized=""/>
    <tripinfo id="200" depart="143.00" departLane="162442431#0_0" departPos="5.10" departSpeed="12.31" departDelay="0.61" arrival="295.00" arrivalLane="306997515#4_0" arrivalPos="123.08" arrivalSpeed="11.85" duration="152.00" routeLength="783.48" waitingTime="68.00" waitingCount="3" stopTime="0.00" timeLoss="87.55" rerouteNo="0" devices="tripinfo_200" vType="0" speedFactor="0.89" vaporized=""/>
    <tripinfo id="479" depart="19.00" departLane="279365144#1_0" departPos="5.10" departSpeed="13.45" departDelay="0.04" arrival="296.00" arrivalLane="-31794904#2_0" arrivalPos="104.17" arrivalSpeed="13.06" duration="277.00" routeLength="1489.66" waitingTime="126.00" waitingCount="5" stopTime="0.00" timeLoss="165.26" rerouteNo="0" devices="tripinfo_479" vType="0" speedFactor="0.97" vaporized=""/>
    <tripinfo id="1134" depart="52.00" departLane="160253722#1_0" departPos="5.10" departSpeed="13.80" departDelay="0.46" arrival="296.00" arrivalLane="496339475#0_0" arrivalPos="152.58" arrivalSpeed="13.38" duration="244.00" routeLength="1934.97" waitingTime="64.00" waitingCount="3" stopTime="0.00" timeLoss="102.83" rerouteNo="0" devices="tripinfo_1134" vType="0" speedFactor="0.99" vaporized=""/>
    <tripinfo id="1715" depart="108.00" departLane="-24452782#8_0" departPos="5.10" departSpeed="12.10" departDelay="0.67" arrival="296.00" arrivalLane="41963902#7_0" arrivalPos="139.77" arrivalSpeed="11.23" duration="188.00" routeLength="953.06" waitingTime="84.00" waitingCount="4" stopTime="0.00" timeLoss="108.85" rerouteNo="0" devices="tripinfo_1715" vType="0" speedFactor="0.87" vaporized=""/>
    <tripinfo id="707" depart="167.00" departLane="-71285598#7_0" departPos="5.10" departSpeed="12.07" departDelay="0.44" arrival="296.00" arrivalLane="-158783758#6_0" arrivalPos="130.70" arrivalSpeed="10.84" duration="129.00" routeLength="1138.05" waitingTime="15.00" waitingCount="2" stopTime="0.00" timeLoss="34.58" rerouteNo="0" devices="tripinfo_707" vType="0" speedFactor="0.87" vaporized=""/>
    <tripinfo id="857" depart="32.00" departLane="31794904#1_0" departPos="5.10" departSpeed="15.58" departDelay="0.02" arrival="297.00" arrivalLane="496339475#0_0" arrivalPos="152.58" arrivalSpeed="14.88" duration="265.00" routeLength="2023.08" waitingTime="86.00" waitingCount="3" stopTime="0.00" timeLoss="134.88" rerouteNo="0" devices="tripinfo_857" vType="0" speedFactor="1.12" vaporized=""/>
    <tripinfo id="1982" depart="105.00" departLane="-24452786#9_0" departPos="5.10" departSpeed="13.43" departDelay="0.85" arrival="298.00" arrivalLane="41963902#7_0" arrivalPos="139.77" arrivalSpeed="12.91" duration="193.00" routeLength="1345.02" waitingTime="53.00" waitingCount="4" stopTime="0.00" timeLoss="92.20" rerouteNo="0" devices="tripinfo_1982" vType="0" speedFactor="0.97" vaporized=""/>
    <tripinfo id="1186" depart="117.00" departLane="-160913587_0" departPos="5.10" departSpeed="11.72" departDelay="0.29" arrival="302.00" arrivalLane="521131212#2_0" arrivalPos="129.66" arrivalSpeed="11.23" duration="185.00" routeLength="1576.62" waitingTime="23.00" waitingCount="3" stopTime="0.00" timeLoss="49.58" rerouteNo="0" devices="tripinfo_1186" vType="0" speedFactor="0.84" vaporized=""/>
    <tripinfo id="810" depart="59.00" departLane="-71285598#7_0" departPos="5.10" departSpeed="13.24" departDelay="0.90" arrival="307.00" arrivalLane="306997493#0_0" arrivalPos="121.52" arrivalSpeed="13.13" duration="248.00" routeLength="1766.41" waitingTime="89.00" waitingCount="3" stopTime="0.00" timeLoss="114.15" rerouteNo="0" devices="tripinfo_810" vType="0" speedFactor="0.95" vaporized=""/>
    <tripinfo id="789" depart="109.00" departLane="-71285598#7_0" departPos="5.10" departSpeed="13.33" departDelay="0.77" arrival="309.00" arrivalLane="306997493#0_0" arrivalPos="121.52" arrivalSpeed="12.79" duration="200.00" routeLength="1766.41" waitingTime="48.00" waitingCount="2" stopTime="0.00" timeLoss="66.77" rerouteNo="0" devices="tripinfo_789" vType="0" speedFactor="0.96" vaporized=""/>
    <tripinfo id="1350" depart="26.00" departLane="-496253677#23_0" departPos="5.10" departSpeed="11.43" departDelay="0.51" arrival="315.00" arrivalLane="-499302825#3_0" arrivalPos="134.22" arrivalSpeed="11.37" duration="289.00" routeLength="1535.35" waitingTime="119.00" waitingCount="5" stopTime="0.00" timeLoss="154.21" rerouteNo="0" devices="tripinfo_1350" vType="0" speedFactor="0.82" vaporized=""/>
    <tripinfo id="1117" depart="130.00" departLane="160253722#1_1" departPos="5.10" departSpeed="13.52" departDelay="0.87" arrival="315.00" arrivalLane="-302240826#6_0" arrivalPos="134.74" arrivalSpeed="12.78" duration="185.00" routeLength="1600.04" waitingTime="47.00" waitingCount="2" stopTime="0.00" timeLoss="66.12" rerouteNo="0" devices="tripinfo_1117" vType="0" speedFactor="0.97" vaporized=""/>
    <tripinfo id="1475" depart="220.00" departLane="-41963902#10_0" departPos="5.10" departSpeed="11.59" departDelay="0.84" arrival="315.00" arrivalLane="496339476#0_0" arrivalPos="147.92" arrivalSpeed="10.98" duration="95.00" routeLength="571.84" waitingTime="34.00" waitingCount="1" stopTime="0.00" timeLoss="45.36" rerouteNo="0" devices="tripinfo_1475" vType="0" speedFactor="0.83" vaporized=""/>
    <tripinfo id="1892" depart="64.00" departLane="-24452786#9_0" departPos="5.10" departSpeed="15.17" departDelay="0.71" arrival="317.00" arrivalLane="306997493#0_0" arrivalPos="121.52" arrivalSpeed="15.13" duration="253.00" routeLength="2526.22" waitingTime="61.00" waitingCount="3" stopTime="0.00" timeLoss="85.93" rerouteNo="0" devices="tripinfo_1892" vType="0" speedFactor="1.09" vaporized=""/>
    <tripinfo id="1693" depart="71.00" departLane="-286094870#18_0" departPos="5.10" departSpeed="13.01" departDelay="0.10" arrival="317.00" arrivalLane="161010072#3_0" arrivalPos="141.87" arrivalSpeed="12.54" duration="246.00" routeLength="1680.35" waitingTime="84.00" waitingCount="4" stopTime="0.00" timeLoss="116.70" rerouteNo="0" devices="tripinfo_1693" vType="0" speedFactor="0.94" vaporized=""/>
    <tripinfo id="1384" depart="53.00" departLane="-496339475#2_0" departPos="5.10" departSpeed="11.49" departDelay="0.31" arrival="319.00" arrivalLane="315886539#2_0" arrivalPos="124.84" arrivalSpeed="6.77" duration="266.00" routeLength="1689.09" waitingTime="85.00" waitingCount="5" stopTime="0.00" timeLoss="118.38" rerouteNo="0" devices="tripinfo_1384" vType="0" speedFactor="0.83" vaporized=""/>
    <tripinfo id="833" depart="107.00" departLane="31794904#1_0" departPos="5.10" departSpeed="10.88" departDelay="0.31" arrival="325.00" arrivalLane="-302240826#6_0" arrivalPos="134.74" arrivalSpeed="10.61" duration="218.00" routeLength="1688.15" waitingTime="42.00" waitingCount="2" stopTime="0.00" timeLoss="62.20" rerouteNo="0" devices="tripinfo_833" vType="0" speedFactor="0.78" vaporized=""/>
    <tripinfo id="1845" depart="146.00" departLane="496253674#0_0" departPos="5.10" departSpeed="12.73" departDelay="0.31" arrival="325.00" arrivalLane="-152086640#0_0" arrivalPos="79.00" arrivalSpeed="11.50" duration="179.00" routeLength="1848.46" waitingTime="8.00" waitingCount="2" stopTime="0.00" timeLoss="33.19" rerouteNo="0" devices="tripinfo_1845" vType="0" speedFactor="0.92" vaporized=""/>
    <tripinfo id="389" depart="2.00" departLane="297757252#0_0" departPos="5.10" departSpeed="10.59" departDelay="0.35" arrival="328.00" arrivalLane="521131212#2_0" arrivalPos="129.66" arrivalSpeed="13.28" duration="326.00" routeLength="2204.12" waitingTime="125.00" waitingCount="6" stopTime="0.00" timeLoss="163.93" rerouteNo="0" devices="tripinfo_389" vType="0" speedFactor="0.98" vaporized=""/>
    <tripinfo id="772" depart="127.00" departLane="159315419_0" departPos="5.10" departSpeed="12.38" departDelay="0.98" arrival="328.00" arrivalLane="-31794904#2_0" arrivalPos="104.17" arrivalSpeed="11.65" duration="201.00" routeLength="1107.30" waitingTime="83.00" waitingCount="3" stopTime="0.00" timeLoss="110.86" rerouteNo="0" devices="tripinfo_772" vType="0" speedFactor="0.89" vaporized=""/>
    <tripinfo id="490" depart="152.00" departLane="81509011#0_0" departPos="5.10" departSpeed="15.17" departDelay="0.60" arrival="328.00" arrivalLane="-41389169#13_0" arrivalPos="100.84" arrivalSpeed="14.02" duration="176.00" routeLength="1221.59" waitingTime="60.00" waitingCount="5" stopTime="0.00" timeLoss="95.39" rerouteNo="0" devices="tripinfo_490" vType="0" speedFactor="1.09" vaporized=""/>
    <tripinfo id="1446" depart="31.00" departLane="-496339475#2_0" departPos="5.10" departSpeed="13.27" departDelay="0.97" arrival="329.00" arrivalLane="160913587_0" arrivalPos="125.75" arrivalSpeed="12.50" duration="298.00" routeLength="1797.67" waitingTime="124.00" waitingCount="5" stopTime="0.00" timeLoss="161.87" rerouteNo="0" devices="tripinfo_1446" vType="0" speedFactor="0.96" vaporized=""/>
    <tripinfo id="52" depart="55.00" departLane="-571719005#1_0" departPos="5.10" departSpeed="11.18" departDelay="0.35" arrival="329.00" arrivalLane="-279365144#3_0" arrivalPos="211.15" arrivalSpeed="10.27" duration="274.00" routeLength="1895.00" waitingTime="69.00" waitingCount="4" stopTime="0.00" timeLoss="104.44" rerouteNo="0" devices="tripinfo_52" vType="0" speedFactor="0.80" vaporized=""/>
    <tripinfo id="894" depart="70.00" departLane="41389169#12_0" departPos="5.10" departSpeed="14.85" departDelay="0.78" arrival="329.00" arrivalLane="286847309#10_0" arrivalPos="128.08" arrivalSpeed="14.26" duration="259.00" routeLength="2419.00" waitingTime="62.00" waitingCount="4" stopTime="0.00" timeLoss="95.49" rerouteNo="0" devices="tripinfo_894" vType="0" speedFactor="1.07" vaporized=""/>