<?xml version="1.0" encoding="UTF-8"?>

<!-- generated on 2023-04-28 11:46:07 by Eclipse SUMO sumo Version 1.14.0
<configuration xmlns:xsi="http://www.w3.org/2001/XMLSchema-instance" xsi:noNamespaceSchemaLocation="http://sumo.dlr.de/xsd/sumoConfiguration.xsd">

    <input>
        <net-file value="Tainan.net.xml"/>
        <route-files value="od_route_file.odtrips39.rou.xml"/>
        <additional-files value="Tainan.det.xml"/>
    </input>

    <output>
        <tripinfo-output value="Experiment/tripinfo39.xml"/>
    </output>

    <time>
        <begin value="0"/>
    </time>

</configuration>
-->

<tripinfos xmlns:xsi="http://www.w3.org/2001/XMLSchema-instance" xsi:noNamespaceSchemaLocation="http://sumo.dlr.de/xsd/tripinfo_file.xsd">
    <tripinfo id="1726" depart="5.00" departLane="228022815#0_0" departPos="5.10" departSpeed="13.62" departDelay="0.79" arrival="36.00" arrivalLane="496253677#22_0" arrivalPos="135.88" arrivalSpeed="12.50" duration="31.00" routeLength="395.22" waitingTime="0.00" waitingCount="0" stopTime="0.00" timeLoss="1.74" rerouteNo="0" devices="tripinfo_1726" vType="0" speedFactor="0.98" vaporized=""/>
    <tripinfo id="488" depart="36.00" departLane="-556031052#2_0" departPos="5.10" departSpeed="13.16" departDelay="0.03" arrival="84.00" arrivalLane="297757244#1_1" arrivalPos="216.85" arrivalSpeed="12.38" duration="48.00" routeLength="597.60" waitingTime="0.00" waitingCount="0" stopTime="0.00" timeLoss="2.51" rerouteNo="0" devices="tripinfo_488" vType="0" speedFactor="0.95" vaporized=""/>
    <tripinfo id="948" depart="12.00" departLane="-160913587_0" departPos="5.10" departSpeed="8.97" departDelay="1.37" arrival="103.00" arrivalLane="-227913938#6_0" arrivalPos="166.49" arrivalSpeed="12.99" duration="91.00" routeLength="758.66" waitingTime="23.00" waitingCount="1" stopTime="0.00" timeLoss="34.11" rerouteNo="0" devices="tripinfo_948" vType="0" speedFactor="0.97" vaporized=""/>
    <tripinfo id="114" depart="70.00" departLane="-303889712#6_0" departPos="5.10" departSpeed="13.43" departDelay="0.63" arrival="106.00" arrivalLane="571719005#0_0" arrivalPos="122.71" arrivalSpeed="12.69" duration="36.00" routeLength="332.15" waitingTime="4.00" waitingCount="1" stopTime="0.00" timeLoss="10.64" rerouteNo="0" devices="tripinfo_114" vType="0" speedFactor="0.97" vaporized=""/>
    <tripinfo id="741" depart="6.00" departLane="152086640#0_0" departPos="5.10" departSpeed="11.61" departDelay="0.80" arrival="118.00" arrivalLane="-279365144#3_0" arrivalPos="211.15" arrivalSpeed="10.95" duration="112.00" routeLength="1099.34" waitingTime="7.00" waitingCount="1" stopTime="0.00" timeLoss="16.42" rerouteNo="0" devices="tripinfo_741" vType="0" speedFactor="0.84" vaporized=""/>
    <tripinfo id="941" depart="58.00" departLane="-160913587_0" departPos="5.10" departSpeed="12.99" departDelay="0.13" arrival="148.00" arrivalLane="-499302825#3_0" arrivalPos="134.22" arrivalSpeed="12.71" duration="90.00" routeLength="992.61" waitingTime="4.00" waitingCount="1" stopTime="0.00" timeLoss="12.79" rerouteNo="0" devices="tripinfo_941" vType="0" speedFactor="0.93" vaporized=""/>
    <tripinfo id="732" depart="47.00" departLane="159315419_0" departPos="5.10" departSpeed="14.85" departDelay="0.17" arrival="150.00" arrivalLane="556031052#1_0" arrivalPos="158.06" arrivalSpeed="14.50" duration="103.00" routeLength="574.88" waitingTime="49.00" waitingCount="2" stopTime="0.00" timeLoss="64.05" rerouteNo="0" devices="tripinfo_732" vType="0" speedFactor="1.07" vaporized=""/>
    <tripinfo id="110" depart="29.00" departLane="-306997496#1_0" departPos="5.10" departSpeed="13.72" departDelay="0.76" arrival="151.00" arrivalLane="-158782352#5_0" arrivalPos="65.18" arrivalSpeed="13.58" duration="122.00" routeLength="620.01" waitingTime="64.00" waitingCount="2" stopTime="0.00" timeLoss="75.90" rerouteNo="0" devices="tripinfo_110" vType="0" speedFactor="0.99" vaporized=""/>
    <tripinfo id="1861" depart="67.00" departLane="-24452786#9_0" departPos="5.10" departSpeed="12.15" departDelay="1.06" arrival="152.00" arrivalLane="160913587_0" arrivalPos="125.75" arrivalSpeed="12.07" duration="85.00" routeLength="1027.08" waitingTime="0.00" waitingCount="0" stopTime="0.00" timeLoss="4.91" rerouteNo="0" devices="tripinfo_1861" vType="0" speedFactor="0.93" vaporized=""/>
    <tripinfo id="287" depart="17.00" departLane="-gneE5_0" departPos="5.10" departSpeed="15.34" departDelay="0.43" arrival="154.00" arrivalLane="571719005#0_0" arrivalPos="122.71" arrivalSpeed="14.61" duration="137.00" routeLength="769.58" waitingTime="64.00" waitingCount="3" stopTime="0.00" timeLoss="86.38" rerouteNo="0" devices="tripinfo_287" vType="0" speedFactor="1.10" vaporized=""/>
    <tripinfo id="1033" depart="11.00" departLane="-160913587_0" departPos="5.10" departSpeed="12.31" departDelay="0.57" arrival="157.00" arrivalLane="-31794904#2_0" arrivalPos="104.17" arrivalSpeed="12.20" duration="146.00" routeLength="913.65" waitingTime="50.00" waitingCount="3" stopTime="0.00" timeLoss="71.19" rerouteNo="0" devices="tripinfo_1033" vType="0" speedFactor="0.89" vaporized=""/>
    <tripinfo id="1750" depart="136.00" departLane="159307912_0" departPos="5.10" departSpeed="14.91" departDelay="0.03" arrival="174.00" arrivalLane="-496253674#1_0" arrivalPos="138.20" arrivalSpeed="14.51" duration="38.00" routeLength="536.95" waitingTime="0.00" waitingCount="0" stopTime="0.00" timeLoss="1.62" rerouteNo="0" devices="tripinfo_1750" vType="0" speedFactor="1.07" vaporized=""/>
    <tripinfo id="492" depart="67.00" departLane="-72871334#3_0" departPos="5.10" departSpeed="13.22" departDelay="0.13" arrival="181.00" arrivalLane="-160253722#3_1" arrivalPos="117.49" arrivalSpeed="11.93" duration="114.00" routeLength="1313.30" waitingTime="1.00" waitingCount="1" stopTime="0.00" timeLoss="14.57" rerouteNo="0" devices="tripinfo_492" vType="0" speedFactor="0.95" vaporized=""/>
    <tripinfo id="1038" depart="25.00" departLane="-160913587_0" departPos="5.10" departSpeed="13.62" departDelay="0.94" arrival="191.00" arrivalLane="-41389169#13_0" arrivalPos="100.84" arrivalSpeed="13.07" duration="166.00" routeLength="1125.85" waitingTime="58.00" waitingCount="3" stopTime="0.00" timeLoss="82.90" rerouteNo="0" devices="tripinfo_1038" vType="0" speedFactor="0.98" vaporized=""/>
    <tripinfo id="1479" depart="5.00" departLane="-496339475#2_0" departPos="5.10" departSpeed="14.34" departDelay="0.88" arrival="193.00" arrivalLane="521131212#2_0" arrivalPos="129.66" arrivalSpeed="13.92" duration="188.00" routeLength="1181.39" waitingTime="85.00" waitingCount="3" stopTime="0.00" timeLoss="105.42" rerouteNo="0" devices="tripinfo_1479" vType="0" speedFactor="1.03" vaporized=""/>
    <tripinfo id="1110" depart="22.00" departLane="160253722#1_0" departPos="5.10" departSpeed="15.69" departDelay="0.08" arrival="193.00" arrivalLane="161010072#3_0" arrivalPos="141.87" arrivalSpeed="14.51" duration="171.00" routeLength="1811.56" waitingTime="35.00" waitingCount="3" stopTime="0.00" timeLoss="55.10" rerouteNo="0" devices="tripinfo_1110" vType="0" speedFactor="1.13" vaporized=""/>
    <tripinfo id="1885" depart="24.00" departLane="159307912_0" departPos="5.10" departSpeed="11.81" departDelay="0.12" arrival="194.00" arrivalLane="160913587_0" arrivalPos="125.75" arrivalSpeed="11.54" duration="170.00" routeLength="1148.91" waitingTime="54.00" waitingCount="2" stopTime="0.00" timeLoss="72.14" rerouteNo="0" devices="tripinfo_1885" vType="0" speedFactor="0.85" vaporized=""/>
    <tripinfo id="1742" depart="61.00" departLane="228022815#0_0" departPos="5.10" departSpeed="13.67" departDelay="0.56" arrival="194.00" arrivalLane="286847309#10_0" arrivalPos="128.08" arrivalSpeed="13.34" duration="133.00" routeLength="760.49" waitingTime="58.00" waitingCount="3" stopTime="0.00" timeLoss="76.69" rerouteNo="0" devices="tripinfo_1742" vType="0" speedFactor="0.98" vaporized=""/>
    <tripinfo id="1727" depart="124.00" departLane="-521131212#2_0" departPos="5.10" departSpeed="13.25" departDelay="0.06" arrival="194.00" arrivalLane="496253677#22_0" arrivalPos="135.88" arrivalSpeed="12.95" duration="70.00" routeLength="653.54" waitingTime="8.00" waitingCount="1" stopTime="0.00" timeLoss="20.33" rerouteNo="0" devices="tripinfo_1727" vType="0" speedFactor="0.95" vaporized=""/>
    <tripinfo id="239" depart="17.00" departLane="162442431#0_0" departPos="5.10" departSpeed="8.79" departDelay="0.85" arrival="198.00" arrivalLane="-152086640#0_0" arrivalPos="79.00" arrivalSpeed="14.50" duration="181.00" routeLength="1749.42" waitingTime="48.00" waitingCount="2" stopTime="0.00" timeLoss="69.08" rerouteNo="0" devices="tripinfo_239" vType="0" speedFactor="1.13" vaporized=""/>
    <tripinfo id="947" depart="72.00" departLane="-160913587_0" departPos="5.10" departSpeed="10.88" departDelay="0.23" arrival="199.00" arrivalLane="-227913938#6_0" arrivalPos="166.49" arrivalSpeed="10.78" duration="127.00" routeLength="758.66" waitingTime="49.00" waitingCount="1" stopTime="0.00" timeLoss="57.22" rerouteNo="0" devices="tripinfo_947" vType="0" speedFactor="0.78" vaporized=""/>
    <tripinfo id="1997" depart="10.00" departLane="499302825#0_0" departPos="5.10" departSpeed="11.51" departDelay="0.04" arrival="200.00" arrivalLane="24452782#7_0" arrivalPos="130.73" arrivalSpeed="11.40" duration="190.00" routeLength="989.85" waitingTime="71.00" waitingCount="3" stopTime="0.00" timeLoss="103.51" rerouteNo="0" devices="tripinfo_1997" vType="0" speedFactor="0.83" vaporized=""/>
    <tripinfo id="719" depart="99.00" departLane="152086640#0_0" departPos="5.10" departSpeed="13.32" departDelay="0.38" arrival="204.00" arrivalLane="-158783758#6_0" arrivalPos="130.70" arrivalSpeed="12.28" duration="105.00" routeLength="965.18" waitingTime="14.00" waitingCount="2" stopTime="0.00" timeLoss="32.52" rerouteNo="0" devices="tripinfo_719" vType="0" speedFactor="0.96" vaporized=""/>
    <tripinfo id="1687" depart="43.00" departLane="-521131212#2_0" departPos="5.10" departSpeed="11.79" departDelay="0.30" arrival="209.00" arrivalLane="161010072#3_0" arrivalPos="141.87" arrivalSpeed="11.01" duration="166.00" routeLength="1297.72" waitingTime="40.00" waitingCount="1" stopTime="0.00" timeLoss="55.44" rerouteNo="0" devices="tripinfo_1687" vType="0" speedFactor="0.85" vaporized=""/>
    <tripinfo id="276" depart="63.00" departLane="158995079#0_0" departPos="5.10" departSpeed="13.43" departDelay="0.62" arrival="217.00" arrivalLane="303889712#5_0" arrivalPos="123.50" arrivalSpeed="13.14" duration="154.00" routeLength="1102.38" waitingTime="51.00" waitingCount="2" stopTime="0.00" timeLoss="71.11" rerouteNo="0" devices="tripinfo_276" vType="0" speedFactor="0.97" vaporized=""/>
    <tripinfo id="726" depart="11.00" departLane="-71285598#7_0" departPos="5.10" departSpeed="13.34" departDelay="0.13" arrival="228.00" arrivalLane="315886539#2_0" arrivalPos="124.84" arrivalSpeed="5.68" duration="217.00" routeLength="1660.29" waitingTime="54.00" waitingCount="2" stopTime="0.00" timeLoss="92.40" rerouteNo="0" devices="tripinfo_726" vType="0" speedFactor="0.96" vaporized=""/>
    <tripinfo id="721" depart="69.00" departLane="41389169#12_0" departPos="5.10" departSpeed="13.50" departDelay="0.11" arrival="232.00" arrivalLane="-158995079#1_0" arrivalPos="233.89" arrivalSpeed="12.85" duration="163.00" routeLength="1416.60" waitingTime="22.00" waitingCount="3" stopTime="0.00" timeLoss="57.76" rerouteNo="0" devices="tripinfo_721" vType="0" speedFactor="0.97" vaporized=""/>
    <tripinfo id="450" depart="8.00" departLane="81509011#0_0" departPos="5.10" departSpeed="13.56" departDelay="0.54" arrival="237.00" arrivalLane="306997515#4_0" arrivalPos="123.08" arrivalSpeed="12.91" duration="229.00" routeLength="1481.80" waitingTime="98.00" waitingCount="3" stopTime="0.00" timeLoss="119.59" rerouteNo="0" devices="tripinfo_450" vType="0" speedFactor="0.98" vaporized=""/>
    <tripinfo id="270" depart="58.00" departLane="162442431#0_0" departPos="5.10" departSpeed="12.57" departDelay="0.50" arrival="238.00" arrivalLane="306997493#0_0" arrivalPos="121.52" arrivalSpeed="11.96" duration="180.00" routeLength="722.82" waitingTime="99.00" waitingCount="4" stopTime="0.00" timeLoss="122.22" rerouteNo="0" devices="tripinfo_270" vType="0" speedFactor="0.91" vaporized=""/>
    <tripinfo id="1990" depart="16.00" departLane="159307912_0" departPos="5.10" departSpeed="15.03" departDelay="0.42" arrival="240.00" arrivalLane="286847309#10_0" arrivalPos="128.08" arrivalSpeed="14.96" duration="224.00" routeLength="1251.73" waitingTime="85.00" waitingCount="5" stopTime="0.00" timeLoss="140.37" rerouteNo="0" devices="tripinfo_1990" vType="0" speedFactor="1.08" vaporized=""/>
    <tripinfo id="1798" depart="6.00" departLane="159307912_0" departPos="5.10" departSpeed="13.83" departDelay="0.93" arrival="244.00" arrivalLane="228022792#0_0" arrivalPos="94.26" arrivalSpeed="13.46" duration="238.00" routeLength="2389.18" waitingTime="40.00" waitingCount="2" stopTime="0.00" timeLoss="64.30" rerouteNo="0" devices="tripinfo_1798" vType="0" speedFactor="1.00" vaporized=""/>
    <tripinfo id="763" depart="170.00" departLane="159315419_1" departPos="5.10" departSpeed="11.69" departDelay="0.65" arrival="245.00" arrivalLane="556031052#1_0" arrivalPos="158.06" arrivalSpeed="11.63" duration="75.00" routeLength="574.88" waitingTime="17.00" waitingCount="1" stopTime="0.00" timeLoss="25.80" rerouteNo="0" devices="tripinfo_763" vType="0" speedFactor="0.84" vaporized=""/>
    <tripinfo id="211" depart="18.00" departLane="-gneE5_0" departPos="5.10" departSpeed="12.35" departDelay="1.03" arrival="247.00" arrivalLane="228022792#0_0" arrivalPos="94.26" arrivalSpeed="15.00" duration="229.00" routeLength="1709.45" waitingTime="79.00" waitingCount="4" stopTime="0.00" timeLoss="118.86" rerouteNo="0" devices="tripinfo_211" vType="0" speedFactor="1.12" vaporized=""/>
    <tripinfo id="478" depart="134.00" departLane="-72871334#3_0" departPos="5.10" departSpeed="14.19" departDelay="0.70" arrival="247.00" arrivalLane="297757244#1_1" arrivalPos="216.85" arrivalSpeed="13.03" duration="113.00" routeLength="720.53" waitingTime="40.00" waitingCount="2" stopTime="0.00" timeLoss="62.10" rerouteNo="0" devices="tripinfo_478" vType="0" speedFactor="1.02" vaporized=""/>
    <tripinfo id="1151" depart="26.00" departLane="-160913587_0" departPos="5.10" departSpeed="10.61" departDelay="1.31" arrival="249.00" arrivalLane="286847309#10_0" arrivalPos="128.08" arrivalSpeed="12.12" duration="223.00" routeLength="1832.30" waitingTime="32.00" waitingCount="3" stopTime="0.00" timeLoss="77.09" rerouteNo="0" devices="tripinfo_1151" vType="0" speedFactor="0.91" vaporized=""/>
    <tripinfo id="919" depart="79.00" departLane="160253722#1_0" departPos="5.10" departSpeed="12.75" departDelay="0.77" arrival="255.00" arrivalLane="-227913938#6_0" arrivalPos="166.49" arrivalSpeed="11.57" duration="176.00" routeLength="1260.11" waitingTime="49.00" waitingCount="3" stopTime="0.00" timeLoss="76.64" rerouteNo="0" devices="tripinfo_919" vType="0" speedFactor="0.92" vaporized=""/>
    <tripinfo id="487" depart="88.00" departLane="-228022792#1_0" departPos="5.10" departSpeed="11.72" departDelay="0.82" arrival="257.00" arrivalLane="-31794904#2_0" arrivalPos="104.17" arrivalSpeed="11.44" duration="169.00" routeLength="1216.46" waitingTime="46.00" waitingCount="2" stopTime="0.00" timeLoss="64.92" rerouteNo="0" devices="tripinfo_487" vType="0" speedFactor="0.84" vaporized=""/>
    <tripinfo id="927" depart="91.00" departLane="160253722#1_0" departPos="5.10" departSpeed="14.21" departDelay="0.11" arrival="257.00" arrivalLane="-227913938#6_0" arrivalPos="166.49" arrivalSpeed="13.32" duration="166.00" routeLength="1260.11" waitingTime="38.00" waitingCount="3" stopTime="0.00" timeLoss="76.48" rerouteNo="0" devices="tripinfo_927" vType="0" speedFactor="1.02" vaporized=""/>
    <tripinfo id="1971" depart="38.00" departLane="227913938#0_0" departPos="5.10" departSpeed="11.18" departDelay="0.28" arrival="262.00" arrivalLane="496339476#0_0" arrivalPos="147.92" arrivalSpeed="10.51" duration="224.00" routeLength="2178.27" waitingTime="10.00" waitingCount="1" stopTime="0.00" timeLoss="28.87" rerouteNo="0" devices="tripinfo_1971" vType="0" speedFactor="0.80" vaporized=""/>
    <tripinfo id="213" depart="13.00" departLane="-gneE5_0" departPos="5.10" departSpeed="10.77" departDelay="0.27" arrival="265.00" arrivalLane="72871334#1_0" arrivalPos="116.44" arrivalSpeed="9.86" duration="252.00" routeLength="1779.86" waitingTime="61.00" waitingCount="3" stopTime="0.00" timeLoss="86.44" rerouteNo="0" devices="tripinfo_213" vType="0" speedFactor="0.78" vaporized=""/>
    <tripinfo id="1747" depart="237.00" departLane="159307912_0" departPos="5.10" departSpeed="14.98" departDelay="0.39" arrival="275.00" arrivalLane="-496253674#1_0" arrivalPos="138.20" arrivalSpeed="14.66" duration="38.00" routeLength="536.95" waitingTime="0.00" waitingCount="0" stopTime="0.00" timeLoss="1.71" rerouteNo="0" devices="tripinfo_1747" vType="0" speedFactor="1.08" vaporized=""/>
    <tripinfo id="683" depart="57.00" departLane="31794904#1_0" departPos="5.10" departSpeed="8.76" departDelay="0.42" arrival="277.00" arrivalLane="-499302825#3_0" arrivalPos="134.22" arrivalSpeed="13.48" duration="220.00" routeLength="1484.17" waitingTime="62.00" waitingCount="3" stopTime="0.00" timeLoss="113.02" rerouteNo="0" devices="tripinfo_683" vType="0" speedFactor="1.01" vaporized=""/>
    <tripinfo id="471" depart="113.00" departLane="-556031052#2_0" departPos="5.10" departSpeed="10.72" departDelay="0.11" arrival="281.00" arrivalLane="71285598#7_0" arrivalPos="83.53" arrivalSpeed="9.75" duration="168.00" routeLength="904.75" waitingTime="65.00" waitingCount="3" stopTime="0.00" timeLoss="83.50" rerouteNo="0" devices="tripinfo_471" vType="0" speedFactor="0.77" vaporized=""/>
    <tripinfo id="293" depart="165.00" departLane="-gneE5_0" departPos="5.10" departSpeed="13.61" departDelay="0.82" arrival="282.00" arrivalLane="303889712#5_0" arrivalPos="123.50" arrivalSpeed="12.88" duration="117.00" routeLength="684.37" waitingTime="54.00" waitingCount="2" stopTime="0.00" timeLoss="66.48" rerouteNo="0" devices="tripinfo_293" vType="0" speedFactor="0.98" vaporized=""/>
    <tripinfo id="1988" depart="162.00" departLane="499302825#0_0" departPos="5.10" departSpeed="14.09" departDelay="0.20" arrival="283.00" arrivalLane="24452782#7_0" arrivalPos="130.73" arrivalSpeed="13.20" duration="121.00" routeLength="989.85" waitingTime="36.00" waitingCount="2" stopTime="0.00" timeLoss="50.76" rerouteNo="0" devices="tripinfo_1988" vType="0" speedFactor="1.01" vaporized=""/>
    <tripinfo id="1701" depart="188.00" departLane="228022815#0_0" departPos="5.10" departSpeed="14.13" departDelay="0.74" arrival="285.00" arrivalLane="496339476#0_0" arrivalPos="147.92" arrivalSpeed="13.45" duration="97.00" routeLength="810.99" waitingTime="31.00" waitingCount="1" stopTime="0.00" timeLoss="38.93" rerouteNo="0" devices="tripinfo_1701" vType="0" speedFactor="1.02" vaporized=""/>
    <tripinfo id="1131" depart="5.00" departLane="-160913587_0" departPos="5.10" departSpeed="10.85" departDelay="0.72" arrival="287.00" arrivalLane="41963902#7_0" arrivalPos="139.77" arrivalSpeed="9.77" duration="282.00" routeLength="1901.95" waitingTime="83.00" waitingCount="3" stopTime="0.00" timeLoss="106.27" rerouteNo="0" devices="tripinfo_1131" vType="0" speedFactor="0.78" vaporized=""/>
    <tripinfo id="45" depart="19.00" departLane="158782352#4_0" departPos="5.10" departSpeed="13.47" departDelay="0.80" arrival="287.00" arrivalLane="315886539#2_0" arrivalPos="124.84" arrivalSpeed="12.84" duration="268.00" routeLength="1266.58" waitingTime="136.00" waitingCount="6" stopTime="0.00" timeLoss="173.79" rerouteNo="0" devices="tripinfo_45" vType="0" speedFactor="0.97" vaporized=""/>
    <tripinfo id="1967" depart="66.00" departLane="-24452786#9_0" departPos="5.10" departSpeed="15.25" departDelay="0.27" arrival="287.00" arrivalLane="496253677#22_0" arrivalPos="135.88" arrivalSpeed="14.12" duration="221.00" routeLength="1213.13" waitingTime="104.00" waitingCount="4" stopTime="0.00" timeLoss="140.75" rerouteNo="0" devices="tripinfo_1967" vType="0" speedFactor="1.10" vaporized=""/>
    <tripinfo id="1116" depart="27.00" departLane="-160913587_0" departPos="5.10" departSpeed="5.79" departDelay="1.15" arrival="289.00" arrivalLane="41963902#7_0" arrivalPos="139.77" arrivalSpeed="13.89" duration="262.00" routeLength="1901.95" waitingTime="72.00" waitingCount="3" stopTime="0.00" timeLoss="129.82" rerouteNo="0" devices="tripinfo_1116" vType="0" speedFactor="1.04" vaporized=""/>
    <tripinfo id="1978" depart="17.00" departLane="496253674#0_0" departPos="5.10" departSpeed="13.27" departDelay="0.38" arrival="290.00" arrivalLane="496253677#22_0" arrivalPos="135.88" arrivalSpeed="12.97" duration="273.00" routeLength="1649.11" waitingTime="93.00" waitingCount="5" stopTime="0.00" timeLoss="148.08" rerouteNo="0" devices="tripinfo_1978" vType="0" speedFactor="0.96" vaporized=""/>
    <tripinfo id="397" depart="10.00" departLane="158783758#2_0" departPos="5.10" departSpeed="12.18" departDelay="0.70" arrival="292.00" arrivalLane="521131212#2_0" arrivalPos="129.66" arrivalSpeed="12.08" duration="282.00" routeLength="2153.47" waitingTime="74.00" waitingCount="4" stopTime="0.00" timeLoss="105.16" rerouteNo="0" devices="tripinfo_397" vType="0" speedFactor="0.88" vaporized=""/>
    <tripinfo id="667" depart="38.00" departLane="31794904#1_0" departPos="5.10" departSpeed="11.12" departDelay="0.82" arrival="292.00" arrivalLane="27067557#0_0" arrivalPos="135.00" arrivalSpeed="10.73" duration="254.00" routeLength="1648.40" waitingTime="82.00" waitingCount="3" stopTime="0.00" timeLoss="105.02" rerouteNo="0" devices="tripinfo_667" vType="0" speedFactor="0.80" vaporized=""/>
    <tripinfo id="1959" depart="68.00" departLane="499302825#0_0" departPos="5.10" departSpeed="13.29" departDelay="0.10" arrival="292.00" arrivalLane="496253677#22_0" arrivalPos="135.88" arrivalSpeed="12.99" duration="224.00" routeLength="1540.55" waitingTime="51.00" waitingCount="3" stopTime="0.00" timeLoss="107.29" rerouteNo="0" devices="tripinfo_1959" vType="0" speedFactor="0.96" vaporized=""/>
    <tripinfo id="1141" depart="7.00" departLane="-160913587_0" departPos="5.10" departSpeed="10.88" departDelay="0.43" arrival="293.00" arrivalLane="496253677#22_0" arrivalPos="135.88" arrivalSpeed="14.26" duration="286.00" routeLength="1961.91" waitingTime="68.00" waitingCount="4" stopTime="0.00" timeLoss="150.10" rerouteNo="0" devices="tripinfo_1141" vType="0" speedFactor="1.04" vaporized=""/>
    <tripinfo id="712" depart="53.00" departLane="41389169#12_0" departPos="5.10" departSpeed="13.75" departDelay="0.91" arrival="294.00" arrivalLane="gneE5_0" arrivalPos="123.08" arrivalSpeed="12.48" duration="241.00" routeLength="1864.75" waitingTime="67.00" waitingCount="4" stopTime="0.00" timeLoss="105.06" rerouteNo="0" devices="tripinfo_712" vType="0" speedFactor="0.99" vaporized=""/>
    <tripinfo id="1264" depart="50.00" departLane="302240826#4_0" departPos="5.10" departSpeed="12.33" departDelay="0.60" arrival="295.00" arrivalLane="-41389169#13_0" arrivalPos="100.84" arrivalSpeed="12.22" duration="245.00" routeLength="1814.03" waitingTime="70.00" waitingCount="4" stopTime="0.00" timeLoss="97.14" rerouteNo="0" devices="tripinfo_1264" vType="0" speedFactor="0.89" vaporized=""/>
    <tripinfo id="802" depart="96.00" departLane="152086640#0_0" departPos="5.10" departSpeed="12.63" departDelay="0.79" arrival="296.00" arrivalLane="306997496#0_0" arrivalPos="124.14" arrivalSpeed="12.39" duration="200.00" routeLength="1634.10" waitingTime="47.00" waitingCount="3" stopTime="0.00" timeLoss="70.63" rerouteNo="0" devices="tripinfo_802" vType="0" speedFactor="0.91" vaporized=""/>
    <tripinfo id="132" depart="6.00" departLane="158895309#2_0" departPos="5.10" departSpeed="12.33" departDelay="0.32" arrival="299.00" arrivalLane="286847309#10_0" arrivalPos="128.08" arrivalSpeed="11.45" duration="293.00" routeLength="1871.49" waitingTime="115.00" waitingCount="3" stopTime="0.00" timeLoss="140.47" rerouteNo="0" devices="tripinfo_132" vType="0" speedFactor="0.89" vaporized=""/>
    <tripinfo id="1960" depart="14.00" departLane="-24452786#9_0" departPos="5.10" departSpeed="12.05" departDelay="0.59" arrival="300.00" arrivalLane="496339475#0_0" arrivalPos="152.58" arrivalSpeed="10.80" duration="286.00" routeLength="1726.90" waitingTime="108.00" waitingCount="5" stopTime="0.00" timeLoss="142.37" rerouteNo="0" devices="tripinfo_1960" vType="0" speedFactor="0.87" vaporized=""/>
    <tripinfo id="1322" depart="42.00" departLane="-41389166#7_0" departPos="5.10" departSpeed="13.14" departDelay="0.11" arrival="300.00" arrivalLane="286847309#10_0" arrivalPos="128.08" arrivalSpeed="11.88" duration="258.00" routeLength="1325.52" waitingTime="111.00" waitingCount="5" stopTime="0.00" timeLoss="157.11" rerouteNo="0" devices="tripinfo_1322" vType="0" speedFactor="0.95" vaporized=""/>
    <tripinfo id="1163" depart="62.00" departLane="160253722#1_0" departPos="5.10" departSpeed="13.17" departDelay="0.11" arrival="301.00" arrivalLane="24452782#7_0" arrivalPos="130.73" arrivalSpeed="12.11" duration="239.00" routeLength="1975.05" waitingTime="68.00" waitingCount="2" stopTime="0.00" timeLoss="88.53" rerouteNo="0" devices="tripinfo_1163" vType="0" speedFactor="0.95" vaporized=""/>
    <tripinfo id="918" depart="230.00" departLane="-160913587_0" departPos="5.10" departSpeed="17.36" departDelay="0.19" arrival="301.00" arrivalLane="27067557#0_0" arrivalPos="135.00" arrivalSpeed="17.14" duration="71.00" routeLength="1156.84" waitingTime="0.00" waitingCount="0" stopTime="0.00" timeLoss="4.22" rerouteNo="0" devices="tripinfo_918" vType="0" speedFactor="1.25" vaporized=""/>
    <tripinfo id="748" depart="111.00" departLane="-71285598#7_0" departPos="5.10" departSpeed="12.86" departDelay="0.82" arrival="308.00" arrivalLane="-279365144#3_0" arrivalPos="211.15" arrivalSpeed="12.70" duration="197.00" routeLength="1278.48" waitingTime="82.00" waitingCount="3" stopTime="0.00" timeLoss="103.16" rerouteNo="0" devices="tripinfo_748" vType="0" speedFactor="0.98" vaporized=""/>
    <tripinfo id="154" depart="8.00" departLane="-303889712#6_0" departPos="5.10" departSpeed="14.90" departDelay="0.38" arrival="311.00" arrivalLane="286847309#10_0" arrivalPos="128.08" arrivalSpeed="14.88" duration="303.00" routeLength="2038.76" waitingTime="138.00" waitingCount="4" stopTime="0.00" timeLoss="165.81" rerouteNo="0" devices="tripinfo_154" vType="0" speedFactor="1.07" vaporized=""/>
    <tripinfo id="35" depart="99.00" departLane="-303889712#6_0" departPos="5.10" departSpeed="14.56" departDelay="0.83" arrival="314.00" arrivalLane="-158783758#6_0" arrivalPos="130.70" arrivalSpeed="13.86" duration="215.00" routeLength="1282.29" waitingTime="93.00" waitingCount="4" stopTime="0.00" timeLoss="126.95" rerouteNo="0" devices="tripinfo_35" vType="0" speedFactor="1.05" vaporized=""/>
    <tripinfo id="1045" depart="203.00" departLane="160253722#1_0" departPos="5.10" departSpeed="11.95" departDelay="0.47" arrival="314.00" arrivalLane="160913587_0" arrivalPos="125.75" arrivalSpeed="10.81" duration="111.00" routeLength="841.20" waitingTime="30.00" waitingCount="1" stopTime="0.00" timeLoss="39.74" rerouteNo="0" devices="tripinfo_1045" vType="0" speedFactor="0.86" vaporized=""/>
    <tripinfo id="1614" depart="14.00" departLane="228022815#0_0" departPos="5.10" departSpeed="11.43" departDelay="0.79" arrival="316.00" arrivalLane="-160253722#3_0" arrivalPos="117.49" arrivalSpeed="10.70" duration="302.00" routeLength="2120.54" waitingTime="84.00" waitingCount="4" stopTime="0.00" timeLoss="116.32" rerouteNo="0" devices="tripinfo_1614" vType="0" speedFactor="0.82" vaporized=""/>
    <tripinfo id="1386" depart="8.00" departLane="-496253677#23_0" departPos="5.10" departSpeed="13.85" departDelay="0.50" arrival="318.00" arrivalLane="315886539#2_0" arrivalPos="124.84" arrivalSpeed="4.89" duration="310.00" routeLength="2192.77" waitingTime="109.00" waitingCount="6" stopTime="0.00" timeLoss="151.66" rerouteNo="0" devices="tripinfo_1386" vType="0" speedFactor="1.00" vaporized=""/>
    <tripinfo id="538" depart="125.00" departLane="279365144#1_0" departPos="5.10" departSpeed="12.55" departDelay="0.75" arrival="318.00" arrivalLane="303889712#5_0" arrivalPos="123.50" arrivalSpeed="12.31" duration="193.00" routeLength="1626.96" waitingTime="46.00" waitingCount="2" stopTime="0.00" timeLoss="63.29" rerouteNo="0" devices="tripinfo_538" vType="0" speedFactor="0.90" vaporized=""/>
    <tripinfo id="1635" depart="130.00" departLane="-24452782#8_0" departPos="5.10" departSpeed="11.62" departDelay="0.35" arrival="319.00" arrivalLane="-160253722#3_0" arrivalPos="117.49" arrivalSpeed="10.34" duration="189.00" routeLength="1701.86" waitingTime="19.00" waitingCount="1" stopTime="0.00" timeLoss="41.96" rerouteNo="0" devices="tripinfo_1635" vType="0" speedFactor="0.84" vaporized=""/>
    <tripinfo id="62" depart="59.00" departLane="-303889712#6_0" departPos="5.10" departSpeed="13.65" departDelay="0.79" arrival="320.00" arrivalLane="-279365144#3_0" arrivalPos="211.15" arrivalSpeed="13.32" duration="261.00" routeLength="1627.74" waitingTime="103.00" waitingCount="4" stopTime="0.00" timeLoss="140.92" rerouteNo="0" devices="tripinfo_62" vType="0" speedFactor="0.98" vaporized=""/>
    <tripinfo id="1346" depart="112.00" departLane="-496253677#23_0" departPos="5.10" departSpeed="13.52" departDelay="0.70" arrival="321.00" arrivalLane="-496253674#1_0" arrivalPos="138.20" arrivalSpeed="12.60" duration="209.00" routeLength="1643.92" waitingTime="55.00" waitingCount="3" stopTime="0.00" timeLoss="86.98" rerouteNo="0" devices="tripinfo_1346" vType="0" speedFactor="0.97" vaporized=""/>