<?xml version="1.0" encoding="UTF-8"?>

<!-- generated on 2023-04-28 11:36:05 by Eclipse SUMO sumo Version 1.14.0
<configuration xmlns:xsi="http://www.w3.org/2001/XMLSchema-instance" xsi:noNamespaceSchemaLocation="http://sumo.dlr.de/xsd/sumoConfiguration.xsd">

    <input>
        <net-file value="Tainan.net.xml"/>
        <route-files value="od_route_file.odtrips11.rou.xml"/>
        <additional-files value="Tainan.det.xml"/>
    </input>

    <output>
        <tripinfo-output value="Experiment/tripinfo11.xml"/>
    </output>

    <time>
        <begin value="0"/>
    </time>

</configuration>
-->

<tripinfos xmlns:xsi="http://www.w3.org/2001/XMLSchema-instance" xsi:noNamespaceSchemaLocation="http://sumo.dlr.de/xsd/tripinfo_file.xsd">
    <tripinfo id="1475" depart="17.00" departLane="-496339476#3_0" departPos="5.10" departSpeed="12.18" departDelay="0.01" arrival="72.00" arrivalLane="496339475#0_0" arrivalPos="152.58" arrivalSpeed="12.07" duration="55.00" routeLength="429.07" waitingTime="12.00" waitingCount="1" stopTime="0.00" timeLoss="19.60" rerouteNo="0" devices="tripinfo_1475" vType="0" speedFactor="0.88" vaporized=""/>
    <tripinfo id="1764" depart="50.00" departLane="227913938#0_0" departPos="5.10" departSpeed="13.24" departDelay="0.06" arrival="92.00" arrivalLane="-496253674#1_0" arrivalPos="138.20" arrivalSpeed="12.25" duration="42.00" routeLength="482.02" waitingTime="0.00" waitingCount="0" stopTime="0.00" timeLoss="5.19" rerouteNo="0" devices="tripinfo_1764" vType="0" speedFactor="0.95" vaporized=""/>
    <tripinfo id="466" depart="4.00" departLane="-556031052#2_0" departPos="5.10" departSpeed="13.62" departDelay="0.27" arrival="109.00" arrivalLane="556031052#1_0" arrivalPos="158.06" arrivalSpeed="13.58" duration="105.00" routeLength="637.68" waitingTime="40.00" waitingCount="2" stopTime="0.00" timeLoss="58.10" rerouteNo="0" devices="tripinfo_466" vType="0" speedFactor="0.98" vaporized=""/>
    <tripinfo id="735" depart="2.00" departLane="-71285598#7_0" departPos="5.10" departSpeed="11.10" departDelay="0.88" arrival="115.00" arrivalLane="-81509011#2_0" arrivalPos="180.79" arrivalSpeed="12.30" duration="113.00" routeLength="1074.31" waitingTime="11.00" waitingCount="2" stopTime="0.00" timeLoss="24.97" rerouteNo="0" devices="tripinfo_735" vType="0" speedFactor="0.89" vaporized=""/>
    <tripinfo id="1309" depart="47.00" departLane="-161010072#5_0" departPos="5.10" departSpeed="11.12" departDelay="0.11" arrival="151.00" arrivalLane="496332203#0_0" arrivalPos="136.26" arrivalSpeed="10.48" duration="104.00" routeLength="479.27" waitingTime="47.00" waitingCount="2" stopTime="0.00" timeLoss="60.39" rerouteNo="0" devices="tripinfo_1309" vType="0" speedFactor="0.80" vaporized=""/>
    <tripinfo id="691" depart="1.00" departLane="-71285598#7_0" departPos="5.10" departSpeed="14.03" departDelay="0.15" arrival="164.00" arrivalLane="-227913938#6_0" arrivalPos="166.49" arrivalSpeed="12.86" duration="163.00" routeLength="1475.15" waitingTime="30.00" waitingCount="2" stopTime="0.00" timeLoss="57.63" rerouteNo="0" devices="tripinfo_691" vType="0" speedFactor="1.01" vaporized=""/>
    <tripinfo id="280" depart="97.00" departLane="-gneE5_0" departPos="5.10" departSpeed="14.21" departDelay="0.40" arrival="169.00" arrivalLane="306997496#0_0" arrivalPos="124.14" arrivalSpeed="13.65" duration="72.00" routeLength="524.31" waitingTime="27.00" waitingCount="1" stopTime="0.00" timeLoss="34.85" rerouteNo="0" devices="tripinfo_280" vType="0" speedFactor="1.02" vaporized=""/>
    <tripinfo id="756" depart="31.00" departLane="159315419_0" departPos="5.10" departSpeed="13.27" departDelay="0.71" arrival="175.00" arrivalLane="72871334#1_0" arrivalPos="116.44" arrivalSpeed="13.14" duration="144.00" routeLength="849.89" waitingTime="63.00" waitingCount="2" stopTime="0.00" timeLoss="79.47" rerouteNo="0" devices="tripinfo_756" vType="0" speedFactor="0.96" vaporized=""/>
    <tripinfo id="661" depart="6.00" departLane="41389169#12_0" departPos="5.10" departSpeed="11.61" departDelay="0.83" arrival="184.00" arrivalLane="-499302825#3_0" arrivalPos="134.22" arrivalSpeed="11.56" duration="178.00" routeLength="1598.02" waitingTime="18.00" waitingCount="2" stopTime="0.00" timeLoss="40.04" rerouteNo="0" devices="tripinfo_661" vType="0" speedFactor="0.84" vaporized=""/>
    <tripinfo id="780" depart="56.00" departLane="152086640#0_0" departPos="5.10" departSpeed="12.77" departDelay="0.75" arrival="188.00" arrivalLane="-160253722#3_1" arrivalPos="117.49" arrivalSpeed="11.96" duration="132.00" routeLength="836.97" waitingTime="50.00" waitingCount="2" stopTime="0.00" timeLoss="65.66" rerouteNo="0" devices="tripinfo_780" vType="0" speedFactor="0.92" vaporized=""/>
    <tripinfo id="478" depart="125.00" departLane="-556031052#2_0" departPos="5.10" departSpeed="13.23" departDelay="0.00" arrival="189.00" arrivalLane="-152086640#0_0" arrivalPos="79.00" arrivalSpeed="12.61" duration="64.00" routeLength="726.24" waitingTime="1.00" waitingCount="1" stopTime="0.00" timeLoss="8.87" rerouteNo="0" devices="tripinfo_478" vType="0" speedFactor="0.95" vaporized=""/>
    <tripinfo id="690" depart="23.00" departLane="41389169#12_0" departPos="5.10" departSpeed="10.77" departDelay="0.06" arrival="192.00" arrivalLane="-499302825#3_0" arrivalPos="134.22" arrivalSpeed="10.45" duration="169.00" routeLength="1596.89" waitingTime="3.00" waitingCount="1" stopTime="0.00" timeLoss="20.08" rerouteNo="0" devices="tripinfo_690" vType="0" speedFactor="0.78" vaporized=""/>
    <tripinfo id="1767" depart="143.00" departLane="499302825#0_0" departPos="5.10" departSpeed="13.10" departDelay="0.16" arrival="193.00" arrivalLane="-227913938#6_0" arrivalPos="166.49" arrivalSpeed="11.90" duration="50.00" routeLength="573.68" waitingTime="0.00" waitingCount="0" stopTime="0.00" timeLoss="5.80" rerouteNo="0" devices="tripinfo_1767" vType="0" speedFactor="0.94" vaporized=""/>
    <tripinfo id="1714" depart="71.00" departLane="-24452782#8_0" departPos="5.10" departSpeed="13.65" departDelay="0.58" arrival="194.00" arrivalLane="496253677#22_0" arrivalPos="135.88" arrivalSpeed="13.34" duration="123.00" routeLength="821.17" waitingTime="48.00" waitingCount="2" stopTime="0.00" timeLoss="62.63" rerouteNo="0" devices="tripinfo_1714" vType="0" speedFactor="0.98" vaporized=""/>
    <tripinfo id="1755" depart="152.00" departLane="-24452786#9_0" departPos="5.10" departSpeed="12.07" departDelay="0.76" arrival="194.00" arrivalLane="27067557#0_0" arrivalPos="135.00" arrivalSpeed="11.18" duration="42.00" routeLength="430.92" waitingTime="0.00" waitingCount="0" stopTime="0.00" timeLoss="5.98" rerouteNo="0" devices="tripinfo_1755" vType="0" speedFactor="0.87" vaporized=""/>
    <tripinfo id="457" depart="152.00" departLane="-556031052#2_0" departPos="5.10" departSpeed="14.44" departDelay="0.67" arrival="194.00" arrivalLane="228022792#0_0" arrivalPos="94.26" arrivalSpeed="14.23" duration="42.00" routeLength="544.52" waitingTime="0.00" waitingCount="0" stopTime="0.00" timeLoss="4.13" rerouteNo="0" devices="tripinfo_457" vType="0" speedFactor="1.04" vaporized=""/>
    <tripinfo id="1885" depart="2.00" departLane="227913938#0_0" departPos="5.10" departSpeed="13.34" departDelay="0.52" arrival="197.00" arrivalLane="-160253722#3_0" arrivalPos="117.49" arrivalSpeed="13.08" duration="195.00" routeLength="1325.25" waitingTime="78.00" waitingCount="2" stopTime="0.00" timeLoss="94.76" rerouteNo="0" devices="tripinfo_1885" vType="0" speedFactor="0.96" vaporized=""/>
    <tripinfo id="1181" depart="44.00" departLane="-160913587_0" departPos="5.10" departSpeed="13.16" departDelay="0.61" arrival="198.00" arrivalLane="24452782#7_0" arrivalPos="130.73" arrivalSpeed="12.22" duration="154.00" routeLength="1411.21" waitingTime="26.00" waitingCount="2" stopTime="0.00" timeLoss="46.34" rerouteNo="0" devices="tripinfo_1181" vType="0" speedFactor="0.95" vaporized=""/>
    <tripinfo id="446" depart="37.00" departLane="-72871334#3_0" departPos="5.10" departSpeed="13.62" departDelay="0.18" arrival="199.00" arrivalLane="-158783758#6_0" arrivalPos="130.70" arrivalSpeed="12.81" duration="162.00" routeLength="1048.57" waitingTime="69.00" waitingCount="2" stopTime="0.00" timeLoss="84.61" rerouteNo="0" devices="tripinfo_446" vType="0" speedFactor="0.98" vaporized=""/>
    <tripinfo id="778" depart="104.00" departLane="159315419_1" departPos="5.10" departSpeed="14.18" departDelay="0.65" arrival="201.00" arrivalLane="297757244#1_0" arrivalPos="216.85" arrivalSpeed="13.72" duration="97.00" routeLength="848.59" waitingTime="22.00" waitingCount="2" stopTime="0.00" timeLoss="37.14" rerouteNo="0" devices="tripinfo_778" vType="0" speedFactor="1.02" vaporized=""/>
    <tripinfo id="1271" depart="30.00" departLane="302240826#4_0" departPos="5.10" departSpeed="15.34" departDelay="0.34" arrival="204.00" arrivalLane="-41389169#13_0" arrivalPos="100.84" arrivalSpeed="14.33" duration="174.00" routeLength="1814.03" waitingTime="38.00" waitingCount="2" stopTime="0.00" timeLoss="55.45" rerouteNo="0" devices="tripinfo_1271" vType="0" speedFactor="1.10" vaporized=""/>
    <tripinfo id="1183" depart="21.00" departLane="-160913587_0" departPos="5.10" departSpeed="13.45" departDelay="0.61" arrival="209.00" arrivalLane="521131212#2_0" arrivalPos="129.66" arrivalSpeed="13.15" duration="188.00" routeLength="1576.62" waitingTime="44.00" waitingCount="3" stopTime="0.00" timeLoss="70.07" rerouteNo="0" devices="tripinfo_1183" vType="0" speedFactor="0.97" vaporized=""/>
    <tripinfo id="948" depart="124.00" departLane="-160913587_0" departPos="5.10" departSpeed="11.62" departDelay="0.11" arrival="223.00" arrivalLane="-499302825#3_0" arrivalPos="134.22" arrivalSpeed="10.89" duration="99.00" routeLength="992.61" waitingTime="2.00" waitingCount="1" stopTime="0.00" timeLoss="12.91" rerouteNo="0" devices="tripinfo_948" vType="0" speedFactor="0.84" vaporized=""/>
    <tripinfo id="1068" depart="49.00" departLane="160253722#1_1" departPos="5.10" departSpeed="15.54" departDelay="0.42" arrival="227.00" arrivalLane="306997493#0_0" arrivalPos="121.52" arrivalSpeed="14.59" duration="178.00" routeLength="1937.45" waitingTime="37.00" waitingCount="1" stopTime="0.00" timeLoss="52.62" rerouteNo="0" devices="tripinfo_1068" vType="0" speedFactor="1.12" vaporized=""/>
    <tripinfo id="1106" depart="56.00" departLane="-160913587_0" departPos="5.10" departSpeed="13.52" departDelay="0.82" arrival="228.00" arrivalLane="-302240826#6_0" arrivalPos="134.74" arrivalSpeed="12.33" duration="172.00" routeLength="1782.37" waitingTime="19.00" waitingCount="2" stopTime="0.00" timeLoss="40.12" rerouteNo="0" devices="tripinfo_1106" vType="0" speedFactor="0.97" vaporized=""/>
    <tripinfo id="204" depart="66.00" departLane="162442431#0_0" departPos="5.10" departSpeed="12.01" departDelay="0.59" arrival="235.00" arrivalLane="-158995079#1_0" arrivalPos="233.89" arrivalSpeed="11.06" duration="169.00" routeLength="1070.11" waitingTime="60.00" waitingCount="3" stopTime="0.00" timeLoss="79.28" rerouteNo="0" devices="tripinfo_204" vType="0" speedFactor="0.86" vaporized=""/>
    <tripinfo id="1847" depart="42.00" departLane="159307912_0" departPos="5.10" departSpeed="13.80" departDelay="0.24" arrival="236.00" arrivalLane="-41389169#13_0" arrivalPos="100.84" arrivalSpeed="12.81" duration="194.00" routeLength="1847.41" waitingTime="39.00" waitingCount="2" stopTime="0.00" timeLoss="59.80" rerouteNo="0" devices="tripinfo_1847" vType="0" speedFactor="0.99" vaporized=""/>
    <tripinfo id="452" depart="160.00" departLane="-556031052#2_0" departPos="5.10" departSpeed="14.29" departDelay="0.05" arrival="236.00" arrivalLane="-158783758#6_0" arrivalPos="130.70" arrivalSpeed="13.96" duration="76.00" routeLength="920.60" waitingTime="0.00" waitingCount="0" stopTime="0.00" timeLoss="10.68" rerouteNo="0" devices="tripinfo_452" vType="0" speedFactor="1.03" vaporized=""/>
    <tripinfo id="1751" depart="25.00" departLane="-24452782#8_0" departPos="5.10" departSpeed="11.43" departDelay="0.12" arrival="240.00" arrivalLane="24452782#7_0" arrivalPos="130.73" arrivalSpeed="10.30" duration="215.00" routeLength="1137.49" waitingTime="83.00" waitingCount="5" stopTime="0.00" timeLoss="115.21" rerouteNo="0" devices="tripinfo_1751" vType="0" speedFactor="0.82" vaporized=""/>
    <tripinfo id="1993" depart="113.00" departLane="159307912_0" departPos="5.10" departSpeed="10.72" departDelay="0.34" arrival="242.00" arrivalLane="286094870#15_0" arrivalPos="132.77" arrivalSpeed="9.44" duration="129.00" routeLength="618.03" waitingTime="50.00" waitingCount="3" stopTime="0.00" timeLoss="70.55" rerouteNo="0" devices="tripinfo_1993" vType="0" speedFactor="0.77" vaporized=""/>
    <tripinfo id="1505" depart="13.00" departLane="228022815#0_0" departPos="5.10" departSpeed="13.56" departDelay="0.74" arrival="244.00" arrivalLane="-227913938#6_0" arrivalPos="166.49" arrivalSpeed="12.35" duration="231.00" routeLength="1704.92" waitingTime="81.00" waitingCount="3" stopTime="0.00" timeLoss="105.19" rerouteNo="0" devices="tripinfo_1505" vType="0" speedFactor="0.98" vaporized=""/>
    <tripinfo id="1091" depart="5.00" departLane="160253722#1_0" departPos="5.10" departSpeed="10.85" departDelay="0.67" arrival="245.00" arrivalLane="496332203#0_0" arrivalPos="136.26" arrivalSpeed="9.71" duration="240.00" routeLength="1647.81" waitingTime="59.00" waitingCount="4" stopTime="0.00" timeLoss="87.32" rerouteNo="0" devices="tripinfo_1091" vType="0" speedFactor="0.78" vaporized=""/>
    <tripinfo id="301" depart="120.00" departLane="297757252#0_0" departPos="5.10" departSpeed="12.55" departDelay="0.37" arrival="245.00" arrivalLane="571719005#0_0" arrivalPos="122.71" arrivalSpeed="11.96" duration="125.00" routeLength="862.90" waitingTime="47.00" waitingCount="1" stopTime="0.00" timeLoss="55.47" rerouteNo="0" devices="tripinfo_301" vType="0" speedFactor="0.90" vaporized=""/>
    <tripinfo id="1636" depart="26.00" departLane="-286094870#18_0" departPos="5.10" departSpeed="12.05" departDelay="0.97" arrival="246.00" arrivalLane="-160253722#3_0" arrivalPos="117.49" arrivalSpeed="11.59" duration="220.00" routeLength="1494.68" waitingTime="74.00" waitingCount="3" stopTime="0.00" timeLoss="95.70" rerouteNo="0" devices="tripinfo_1636" vType="0" speedFactor="0.87" vaporized=""/>
    <tripinfo id="1039" depart="5.00" departLane="-160913587_0" departPos="5.10" departSpeed="13.83" departDelay="0.09" arrival="248.00" arrivalLane="-152086640#0_0" arrivalPos="79.00" arrivalSpeed="13.64" duration="243.00" routeLength="1407.66" waitingTime="107.00" waitingCount="5" stopTime="0.00" timeLoss="140.49" rerouteNo="0" devices="tripinfo_1039" vType="0" speedFactor="1.00" vaporized=""/>
    <tripinfo id="211" depart="107.00" departLane="158783758#2_0" departPos="5.10" departSpeed="12.38" departDelay="0.86" arrival="253.00" arrivalLane="228022792#0_0" arrivalPos="94.26" arrivalSpeed="12.37" duration="146.00" routeLength="1144.42" waitingTime="36.00" waitingCount="2" stopTime="0.00" timeLoss="53.48" rerouteNo="0" devices="tripinfo_211" vType="0" speedFactor="0.89" vaporized=""/>
    <tripinfo id="1178" depart="68.00" departLane="160253722#1_1" departPos="5.10" departSpeed="12.36" departDelay="0.38" arrival="255.00" arrivalLane="286094870#15_0" arrivalPos="132.77" arrivalSpeed="11.23" duration="187.00" routeLength="1764.87" waitingTime="29.00" waitingCount="1" stopTime="0.00" timeLoss="43.40" rerouteNo="0" devices="tripinfo_1178" vType="0" speedFactor="0.89" vaporized=""/>
    <tripinfo id="420" depart="3.00" departLane="-228022792#1_0" departPos="5.10" departSpeed="14.34" departDelay="0.83" arrival="256.00" arrivalLane="-496253674#1_0" arrivalPos="138.20" arrivalSpeed="13.19" duration="253.00" routeLength="2197.49" waitingTime="69.00" waitingCount="3" stopTime="0.00" timeLoss="99.78" rerouteNo="0" devices="tripinfo_420" vType="0" speedFactor="1.03" vaporized=""/>
    <tripinfo id="509" depart="19.00" departLane="-556031052#2_0" departPos="5.10" departSpeed="11.51" departDelay="0.69" arrival="256.00" arrivalLane="-160253722#3_1" arrivalPos="117.49" arrivalSpeed="10.66" duration="237.00" routeLength="1382.38" waitingTime="83.00" waitingCount="4" stopTime="0.00" timeLoss="116.20" rerouteNo="0" devices="tripinfo_509" vType="0" speedFactor="0.83" vaporized=""/>
    <tripinfo id="783" depart="205.00" departLane="41389169#12_0" departPos="5.10" departSpeed="13.34" departDelay="1.07" arrival="257.00" arrivalLane="-160253722#3_1" arrivalPos="117.49" arrivalSpeed="12.98" duration="52.00" routeLength="550.22" waitingTime="0.00" waitingCount="0" stopTime="0.00" timeLoss="10.73" rerouteNo="0" devices="tripinfo_783" vType="0" speedFactor="0.96" vaporized=""/>
    <tripinfo id="1969" depart="45.00" departLane="159307912_0" departPos="5.10" departSpeed="11.81" departDelay="0.59" arrival="259.00" arrivalLane="496339476#0_0" arrivalPos="147.92" arrivalSpeed="11.13" duration="214.00" routeLength="1774.23" waitingTime="43.00" waitingCount="2" stopTime="0.00" timeLoss="63.09" rerouteNo="0" devices="tripinfo_1969" vType="0" speedFactor="0.85" vaporized=""/>
    <tripinfo id="123" depart="57.00" departLane="-571719005#1_0" departPos="5.10" departSpeed="14.34" departDelay="0.45" arrival="262.00" arrivalLane="496339475#0_0" arrivalPos="152.58" arrivalSpeed="13.62" duration="205.00" routeLength="1352.32" waitingTime="82.00" waitingCount="4" stopTime="0.00" timeLoss="110.50" rerouteNo="0" devices="tripinfo_123" vType="0" speedFactor="1.03" vaporized=""/>
    <tripinfo id="673" depart="78.00" departLane="41389169#12_0" departPos="5.10" departSpeed="15.25" departDelay="0.94" arrival="267.00" arrivalLane="-499302825#3_0" arrivalPos="134.22" arrivalSpeed="14.11" duration="189.00" routeLength="1596.89" waitingTime="43.00" waitingCount="4" stopTime="0.00" timeLoss="84.22" rerouteNo="0" devices="tripinfo_673" vType="0" speedFactor="1.10" vaporized=""/>
    <tripinfo id="678" depart="96.00" departLane="152086640#0_0" departPos="5.10" departSpeed="12.54" departDelay="0.13" arrival="273.00" arrivalLane="-496253674#1_0" arrivalPos="138.20" arrivalSpeed="12.52" duration="177.00" routeLength="1783.11" waitingTime="16.00" waitingCount="1" stopTime="0.00" timeLoss="34.11" rerouteNo="0" devices="tripinfo_678" vType="0" speedFactor="0.90" vaporized=""/>
    <tripinfo id="914" depart="62.00" departLane="159315419_1" departPos="5.10" departSpeed="14.85" departDelay="0.31" arrival="283.00" arrivalLane="286094870#15_0" arrivalPos="132.77" arrivalSpeed="14.63" duration="221.00" routeLength="2159.34" waitingTime="40.00" waitingCount="3" stopTime="0.00" timeLoss="75.29" rerouteNo="0" devices="tripinfo_914" vType="0" speedFactor="1.07" vaporized=""/>
    <tripinfo id="1340" depart="34.00" departLane="-161010072#5_0" departPos="5.10" departSpeed="12.82" departDelay="0.25" arrival="284.00" arrivalLane="286847309#10_0" arrivalPos="128.08" arrivalSpeed="12.44" duration="250.00" routeLength="1038.12" waitingTime="142.00" waitingCount="4" stopTime="0.00" timeLoss="168.16" rerouteNo="0" devices="tripinfo_1340" vType="0" speedFactor="0.92" vaporized=""/>
    <tripinfo id="583" depart="42.00" departLane="-556031052#2_0" departPos="5.10" departSpeed="13.72" departDelay="0.49" arrival="284.00" arrivalLane="496332203#0_0" arrivalPos="136.26" arrivalSpeed="13.72" duration="242.00" routeLength="2218.24" waitingTime="32.00" waitingCount="5" stopTime="0.00" timeLoss="79.69" rerouteNo="0" devices="tripinfo_583" vType="0" speedFactor="0.99" vaporized=""/>
    <tripinfo id="1483" depart="199.00" departLane="-496253677#23_0" departPos="5.10" departSpeed="12.62" departDelay="0.40" arrival="284.00" arrivalLane="521131212#2_0" arrivalPos="129.66" arrivalSpeed="12.13" duration="85.00" routeLength="648.40" waitingTime="21.00" waitingCount="2" stopTime="0.00" timeLoss="33.27" rerouteNo="0" devices="tripinfo_1483" vType="0" speedFactor="0.91" vaporized=""/>
    <tripinfo id="573" depart="28.00" departLane="-556031052#2_0" departPos="5.10" departSpeed="15.03" departDelay="0.63" arrival="285.00" arrivalLane="41389166#5_0" arrivalPos="133.15" arrivalSpeed="14.20" duration="257.00" routeLength="2109.25" waitingTime="57.00" waitingCount="6" stopTime="0.00" timeLoss="116.11" rerouteNo="0" devices="tripinfo_573" vType="0" speedFactor="1.08" vaporized=""/>
    <tripinfo id="444" depart="102.00" departLane="81509011#0_0" departPos="5.10" departSpeed="15.66" departDelay="0.50" arrival="285.00" arrivalLane="315886539#2_0" arrivalPos="124.84" arrivalSpeed="14.89" duration="183.00" routeLength="1495.47" waitingTime="56.00" waitingCount="3" stopTime="0.00" timeLoss="86.62" rerouteNo="0" devices="tripinfo_444" vType="0" speedFactor="1.13" vaporized=""/>
    <tripinfo id="272" depart="110.00" departLane="297757252#0_0" departPos="5.10" departSpeed="13.52" departDelay="0.28" arrival="286.00" arrivalLane="-158782352#5_0" arrivalPos="65.18" arrivalSpeed="13.19" duration="176.00" routeLength="982.43" waitingTime="82.00" waitingCount="3" stopTime="0.00" timeLoss="103.02" rerouteNo="0" devices="tripinfo_272" vType="0" speedFactor="0.97" vaporized=""/>
    <tripinfo id="127" depart="32.00" departLane="158895309#2_0" departPos="5.10" departSpeed="13.12" departDelay="0.70" arrival="287.00" arrivalLane="496339476#0_0" arrivalPos="147.92" arrivalSpeed="11.97" duration="255.00" routeLength="1380.17" waitingTime="117.00" waitingCount="5" stopTime="0.00" timeLoss="149.32" rerouteNo="0" devices="tripinfo_127" vType="0" speedFactor="0.94" vaporized=""/>
    <tripinfo id="734" depart="169.00" departLane="152086640#0_0" departPos="5.10" departSpeed="7.46" departDelay="1.18" arrival="287.00" arrivalLane="-279365144#3_0" arrivalPos="211.15" arrivalSpeed="13.45" duration="118.00" routeLength="1099.34" waitingTime="18.00" waitingCount="2" stopTime="0.00" timeLoss="37.20" rerouteNo="0" devices="tripinfo_734" vType="0" speedFactor="0.98" vaporized=""/>
    <tripinfo id="1760" depart="198.00" departLane="499302825#0_0" departPos="5.10" departSpeed="11.96" departDelay="0.23" arrival="288.00" arrivalLane="27067557#0_0" arrivalPos="135.00" arrivalSpeed="11.43" duration="90.00" routeLength="441.59" waitingTime="40.00" waitingCount="1" stopTime="0.00" timeLoss="52.79" rerouteNo="0" devices="tripinfo_1760" vType="0" speedFactor="0.86" vaporized=""/>
    <tripinfo id="287" depart="166.00" departLane="162442431#0_0" departPos="5.10" departSpeed="14.14" departDelay="0.39" arrival="289.00" arrivalLane="571719005#0_0" arrivalPos="122.71" arrivalSpeed="12.86" duration="123.00" routeLength="630.51" waitingTime="59.00" waitingCount="3" stopTime="0.00" timeLoss="77.98" rerouteNo="0" devices="tripinfo_287" vType="0" speedFactor="1.02" vaporized=""/>
    <tripinfo id="84" depart="29.00" departLane="-571719005#1_0" departPos="5.10" departSpeed="15.68" departDelay="0.65" arrival="291.00" arrivalLane="-41389169#13_0" arrivalPos="100.84" arrivalSpeed="14.47" duration="262.00" routeLength="1865.20" waitingTime="103.00" waitingCount="5" stopTime="0.00" timeLoss="142.19" rerouteNo="0" devices="tripinfo_84" vType="0" speedFactor="1.13" vaporized=""/>
    <tripinfo id="930" depart="140.00" departLane="160253722#1_0" departPos="5.10" departSpeed="11.94" departDelay="0.68" arrival="291.00" arrivalLane="27067557#0_0" arrivalPos="135.00" arrivalSpeed="11.88" duration="151.00" routeLength="1658.29" waitingTime="0.00" waitingCount="0" stopTime="0.00" timeLoss="11.44" rerouteNo="0" devices="tripinfo_930" vType="0" speedFactor="0.86" vaporized=""/>
    <tripinfo id="1970" depart="91.00" departLane="496253674#0_0" departPos="5.10" departSpeed="14.88" departDelay="0.35" arrival="292.00" arrivalLane="41963902#7_0" arrivalPos="139.77" arrivalSpeed="14.75" duration="201.00" routeLength="1781.00" waitingTime="53.00" waitingCount="3" stopTime="0.00" timeLoss="81.35" rerouteNo="0" devices="tripinfo_1970" vType="0" speedFactor="1.07" vaporized=""/>
    <tripinfo id="418" depart="10.00" departLane="279365144#1_0" departPos="5.10" departSpeed="14.46" departDelay="0.03" arrival="293.00" arrivalLane="-499302825#3_0" arrivalPos="134.22" arrivalSpeed="13.62" duration="283.00" routeLength="2627.35" waitingTime="67.00" waitingCount="3" stopTime="0.00" timeLoss="100.65" rerouteNo="0" devices="tripinfo_418" vType="0" speedFactor="1.04" vaporized=""/>
    <tripinfo id="787" depart="81.00" departLane="159315419_1" departPos="5.10" departSpeed="13.79" departDelay="0.89" arrival="293.00" arrivalLane="160913587_0" arrivalPos="125.75" arrivalSpeed="13.42" duration="212.00" routeLength="1617.03" waitingTime="63.00" waitingCount="4" stopTime="0.00" timeLoss="94.43" rerouteNo="0" devices="tripinfo_787" vType="0" speedFactor="0.99" vaporized=""/>
    <tripinfo id="543" depart="41.00" departLane="-72871334#3_0" departPos="5.10" departSpeed="14.47" departDelay="0.30" arrival="294.00" arrivalLane="-158782352#5_0" arrivalPos="65.18" arrivalSpeed="13.28" duration="253.00" routeLength="2110.32" waitingTime="69.00" waitingCount="3" stopTime="0.00" timeLoss="107.03" rerouteNo="0" devices="tripinfo_543" vType="0" speedFactor="1.04" vaporized=""/>
    <tripinfo id="1009" depart="68.00" departLane="160253722#1_0" departPos="5.10" departSpeed="12.82" departDelay="0.95" arrival="294.00" arrivalLane="-81509011#2_0" arrivalPos="180.79" arrivalSpeed="12.81" duration="226.00" routeLength="1548.49" waitingTime="79.00" waitingCount="3" stopTime="0.00" timeLoss="104.72" rerouteNo="0" devices="tripinfo_1009" vType="0" speedFactor="0.92" vaporized=""/>
    <tripinfo id="26" depart="52.00" departLane="-571719005#1_0" departPos="5.10" departSpeed="11.79" departDelay="0.48" arrival="296.00" arrivalLane="-158995079#1_0" arrivalPos="233.89" arrivalSpeed="11.72" duration="244.00" routeLength="1372.22" waitingTime="96.00" waitingCount="5" stopTime="0.00" timeLoss="127.51" rerouteNo="0" devices="tripinfo_26" vType="0" speedFactor="0.85" vaporized=""/>
    <tripinfo id="49" depart="71.00" departLane="-571719005#1_0" departPos="5.10" departSpeed="12.99" departDelay="0.60" arrival="296.00" arrivalLane="306997515#4_0" arrivalPos="123.08" arrivalSpeed="12.23" duration="225.00" routeLength="1088.04" waitingTime="111.00" waitingCount="5" stopTime="0.00" timeLoss="140.70" rerouteNo="0" devices="tripinfo_49" vType="0" speedFactor="0.93" vaporized=""/>
    <tripinfo id="1025" depart="110.00" departLane="160253722#1_0" departPos="5.10" departSpeed="13.63" departDelay="0.74" arrival="296.00" arrivalLane="-81509011#2_0" arrivalPos="180.79" arrivalSpeed="12.41" duration="186.00" routeLength="1548.49" waitingTime="37.00" waitingCount="3" stopTime="0.00" timeLoss="71.71" rerouteNo="0" devices="tripinfo_1025" vType="0" speedFactor="0.98" vaporized=""/>
    <tripinfo id="1997" depart="101.00" departLane="496253674#0_0" departPos="5.10" departSpeed="13.32" departDelay="0.17" arrival="297.00" arrivalLane="521131212#2_0" arrivalPos="129.66" arrivalSpeed="12.13" duration="196.00" routeLength="1263.82" waitingTime="75.00" waitingCount="3" stopTime="0.00" timeLoss="100.93" rerouteNo="0" devices="tripinfo_1997" vType="0" speedFactor="0.96" vaporized=""/>
    <tripinfo id="1615" depart="20.00" departLane="-24452782#8_0" departPos="5.10" departSpeed="15.39" departDelay="0.62" arrival="301.00" arrivalLane="297757244#1_0" arrivalPos="216.85" arrivalSpeed="14.19" duration="281.00" routeLength="2283.80" waitingTime="97.00" waitingCount="4" stopTime="0.00" timeLoss="132.22" rerouteNo="0" devices="tripinfo_1615" vType="0" speedFactor="1.11" vaporized=""/>
    <tripinfo id="1686" depart="66.00" departLane="-521131212#2_0" departPos="5.10" departSpeed="11.90" departDelay="0.77" arrival="301.00" arrivalLane="-302240826#6_0" arrivalPos="134.74" arrivalSpeed="11.34" duration="235.00" routeLength="1457.60" waitingTime="79.00" waitingCount="4" stopTime="0.00" timeLoss="112.20" rerouteNo="0" devices="tripinfo_1686" vType="0" speedFactor="0.86" vaporized=""/>
    <tripinfo id="1275" depart="7.00" departLane="-41389166#7_0" departPos="5.10" departSpeed="12.33" departDelay="0.54" arrival="303.00" arrivalLane="-152086640#0_0" arrivalPos="79.00" arrivalSpeed="12.22" duration="296.00" routeLength="1928.49" waitingTime="101.00" waitingCount="6" stopTime="0.00" timeLoss="139.63" rerouteNo="0" devices="tripinfo_1275" vType="0" speedFactor="0.89" vaporized=""/>
    <tripinfo id="1637" depart="178.00" departLane="-286094870#18_0" departPos="5.10" departSpeed="14.70" departDelay="0.26" arrival="305.00" arrivalLane="-160253722#3_0" arrivalPos="117.49" arrivalSpeed="9.94" duration="127.00" routeLength="1494.68" waitingTime="3.00" waitingCount="1" stopTime="0.00" timeLoss="24.74" rerouteNo="0" devices="tripinfo_1637" vType="0" speedFactor="1.06" vaporized=""/>
    <tripinfo id="1642" depart="182.00" departLane="-286094870#18_0" departPos="5.10" departSpeed="13.70" departDelay="0.92" arrival="310.00" arrivalLane="-160253722#3_0" arrivalPos="117.49" arrivalSpeed="13.06" duration="128.00" routeLength="1494.68" waitingTime="2.00" waitingCount="1" stopTime="0.00" timeLoss="18.03" rerouteNo="0" devices="tripinfo_1642" vType="0" speedFactor="0.99" vaporized=""/>
    <tripinfo id="297" depart="84.00" departLane="158995079#0_0" departPos="5.10" departSpeed="11.69" departDelay="0.79" arrival="311.00" arrivalLane="303889712#5_0" arrivalPos="123.50" arrivalSpeed="10.43" duration="227.00" routeLength="1102.38" waitingTime="106.00" waitingCount="4" stopTime="0.00" timeLoss="132.72" rerouteNo="0" devices="tripinfo_297" vType="0" speedFactor="0.84" vaporized=""/>
    <tripinfo id="274" depart="101.00" departLane="158783758#2_0" departPos="5.10" departSpeed="14.56" departDelay="0.83" arrival="313.00" arrivalLane="303889712#5_0" arrivalPos="123.50" arrivalSpeed="13.42" duration="212.00" routeLength="1276.66" waitingTime="81.00" waitingCount="4" stopTime="0.00" timeLoss="123.95" rerouteNo="0" devices="tripinfo_274" vType="0" speedFactor="1.05" vaporized=""/>